<?xml version="1.0" encoding="UTF-8"?>

<!-- generated on 09/30/22 21:13:01 by Eclipse SUMO sumo Version 1.8.0
<configuration xmlns:xsi="http://www.w3.org/2001/XMLSchema-instance" xsi:noNamespaceSchemaLocation="http://sumo.dlr.de/xsd/sumoConfiguration.xsd">

    <input>
        <net-file value="cacc_platooning_a1_full.net.xml"/>
        <route-files value="20220930_cacc_platooning_a1.py_tripInfo\013.rou.xml"/>
        <additional-files value="20220930_cacc_platooning_a1.py_tripInfo\013.add.xml"/>
    </input>

    <output>
        <emission-output value="20220930_cacc_platooning_a1.py_tripInfo\013_emissions.xml"/>
        <fcd-output value="20220930_cacc_platooning_a1.py_tripInfo\013_fcdout.xml"/>
        <full-output value="20220930_cacc_platooning_a1.py_tripInfo\013_fullout.xml"/>
        <tripinfo-output value="20220930_cacc_platooning_a1.py_tripInfo\013_tripinfo.xml"/>
    </output>

    <time>
        <begin value="0"/>
        <end value="10000"/>
    </time>

    <processing>
        <time-to-teleport value="-1"/>
    </processing>

    <ssm_device>
        <device.ssm.probability value="1"/>
        <device.ssm.file value="20220930_cacc_platooning_a1.py_tripInfo\013_ssm.xml"/>
    </ssm_device>

    <traci_server>
        <remote-port value="53931"/>
    </traci_server>

</configuration>
-->

<fcd-export xmlns:xsi="http://www.w3.org/2001/XMLSchema-instance" xsi:noNamespaceSchemaLocation="http://sumo.dlr.de/xsd/fcd_file.xsd">
    <timestep time="0.00">
        <vehicle id="0" x="5.10" y="-1.60" angle="90.00" type="Car01" speed="0.00" pos="5.10" lane="e0_0" slope="0.00"/>
    </timestep>
    <timestep time="1.00">
        <vehicle id="0" x="6.85" y="-1.60" angle="90.00" type="Car01" speed="1.75" pos="6.85" lane="e0_0" slope="0.00"/>
    </timestep>
    <timestep time="2.00">
        <vehicle id="0" x="10.51" y="-1.60" angle="90.00" type="Car01" speed="3.66" pos="10.51" lane="e0_0" slope="0.00"/>
    </timestep>
    <timestep time="3.00">
        <vehicle id="0" x="16.25" y="-1.60" angle="90.00" type="Car01" speed="5.75" pos="16.25" lane="e0_0" slope="0.00"/>
        <vehicle id="1" x="5.10" y="-1.60" angle="90.00" type="Car" speed="0.00" pos="5.10" lane="e0_0" slope="0.00"/>
    </timestep>
    <timestep time="4.00">
        <vehicle id="0" x="23.58" y="-1.60" angle="90.00" type="Car01" speed="7.33" pos="23.58" lane="e0_0" slope="0.00"/>
        <vehicle id="1" x="7.70" y="-1.60" angle="90.00" type="Car" speed="2.60" pos="7.70" lane="e0_0" slope="0.00"/>
    </timestep>
    <timestep time="5.00">
        <vehicle id="0" x="32.51" y="-1.60" angle="90.00" type="Car01" speed="8.92" pos="32.51" lane="e0_0" slope="0.00"/>
        <vehicle id="1" x="12.90" y="-1.60" angle="90.00" type="Car" speed="5.20" pos="12.90" lane="e0_0" slope="0.00"/>
        <vehicle id="2" x="5.10" y="-1.60" angle="90.00" type="Car" speed="0.00" pos="5.10" lane="e0_0" slope="0.00"/>
    </timestep>
    <timestep time="6.00">
        <vehicle id="0" x="43.52" y="-1.60" angle="90.00" type="Car01" speed="11.01" pos="43.52" lane="e0_0" slope="0.00"/>
        <vehicle id="1" x="20.70" y="-1.60" angle="90.00" type="Car" speed="7.80" pos="20.70" lane="e0_0" slope="0.00"/>
        <vehicle id="2" x="6.40" y="-1.60" angle="90.00" type="Car" speed="1.30" pos="6.40" lane="e0_0" slope="0.00"/>
    </timestep>
    <timestep time="7.00">
        <vehicle id="0" x="56.27" y="-1.60" angle="90.00" type="Car01" speed="12.75" pos="56.27" lane="e0_0" slope="0.00"/>
        <vehicle id="1" x="31.10" y="-1.60" angle="90.00" type="Car" speed="10.40" pos="31.10" lane="e0_0" slope="0.00"/>
        <vehicle id="2" x="10.30" y="-1.60" angle="90.00" type="Car" speed="3.90" pos="10.30" lane="e0_0" slope="0.00"/>
    </timestep>
    <timestep time="8.00">
        <vehicle id="0" x="71.10" y="-1.60" angle="90.00" type="Car01" speed="14.84" pos="71.10" lane="e0_0" slope="0.00"/>
        <vehicle id="1" x="44.10" y="-1.60" angle="90.00" type="Car" speed="13.00" pos="44.10" lane="e0_0" slope="0.00"/>
        <vehicle id="2" x="16.80" y="-1.60" angle="90.00" type="Car" speed="6.50" pos="16.80" lane="e0_0" slope="0.00"/>
        <vehicle id="3" x="5.10" y="-1.60" angle="90.00" type="Car" speed="0.00" pos="5.10" lane="e0_0" slope="0.00"/>
    </timestep>
    <timestep time="9.00">
        <vehicle id="0" x="88.11" y="-1.60" angle="90.00" type="Car01" speed="17.00" pos="88.11" lane="e0_0" slope="0.00"/>
        <vehicle id="1" x="59.70" y="-1.60" angle="90.00" type="Car" speed="15.60" pos="59.70" lane="e0_0" slope="0.00"/>
        <vehicle id="2" x="25.90" y="-1.60" angle="90.00" type="Car" speed="9.10" pos="25.90" lane="e0_0" slope="0.00"/>
        <vehicle id="3" x="7.70" y="-1.60" angle="90.00" type="Car" speed="2.60" pos="7.70" lane="e0_0" slope="0.00"/>
    </timestep>
    <timestep time="10.00">
        <vehicle id="0" x="107.07" y="-1.60" angle="90.00" type="Car01" speed="18.97" pos="107.07" lane="e0_0" slope="0.00"/>
        <vehicle id="1" x="76.63" y="-1.60" angle="90.00" type="Car" speed="16.93" pos="76.63" lane="e0_0" slope="0.00"/>
        <vehicle id="2" x="37.59" y="-1.60" angle="90.00" type="Car" speed="11.70" pos="37.59" lane="e0_0" slope="0.00"/>
        <vehicle id="3" x="12.90" y="-1.60" angle="90.00" type="Car" speed="5.20" pos="12.90" lane="e0_0" slope="0.00"/>
        <vehicle id="4" x="5.10" y="-1.60" angle="90.00" type="Car" speed="0.00" pos="5.10" lane="e0_0" slope="0.00"/>
    </timestep>
    <timestep time="11.00">
        <vehicle id="0" x="127.96" y="-1.60" angle="90.00" type="Car01" speed="20.89" pos="127.96" lane="e0_0" slope="0.00"/>
        <vehicle id="1" x="95.43" y="-1.60" angle="90.00" type="Car" speed="18.80" pos="95.43" lane="e0_0" slope="0.00"/>
        <vehicle id="2" x="51.89" y="-1.60" angle="90.00" type="Car" speed="14.30" pos="51.89" lane="e0_0" slope="0.00"/>
        <vehicle id="3" x="20.70" y="-1.60" angle="90.00" type="Car" speed="7.80" pos="20.70" lane="e0_0" slope="0.00"/>
        <vehicle id="4" x="6.40" y="-1.60" angle="90.00" type="Car" speed="1.30" pos="6.40" lane="e0_0" slope="0.00"/>
    </timestep>
    <timestep time="12.00">
        <vehicle id="0" x="150.84" y="-1.60" angle="90.00" type="Car01" speed="22.87" pos="150.84" lane="e0_0" slope="0.00"/>
        <vehicle id="1" x="116.16" y="-1.60" angle="90.00" type="Car" speed="20.72" pos="116.16" lane="e0_0" slope="0.00"/>
        <vehicle id="2" x="68.79" y="-1.60" angle="90.00" type="Car" speed="16.90" pos="68.79" lane="e0_0" slope="0.00"/>
        <vehicle id="3" x="31.10" y="-1.60" angle="90.00" type="Car" speed="10.40" pos="31.10" lane="e0_0" slope="0.00"/>
        <vehicle id="4" x="10.30" y="-1.60" angle="90.00" type="Car" speed="3.90" pos="10.30" lane="e0_0" slope="0.00"/>
    </timestep>
    <timestep time="13.00">
        <vehicle id="0" x="175.12" y="-1.60" angle="90.00" type="Car01" speed="24.28" pos="175.12" lane="e0_0" slope="0.00"/>
        <vehicle id="1" x="138.86" y="-1.60" angle="90.00" type="Car" speed="22.70" pos="138.86" lane="e0_0" slope="0.00"/>
        <vehicle id="2" x="88.29" y="-1.60" angle="90.00" type="Car" speed="19.50" pos="88.29" lane="e0_0" slope="0.00"/>
        <vehicle id="3" x="44.10" y="-1.60" angle="90.00" type="Car" speed="13.00" pos="44.10" lane="e0_0" slope="0.00"/>
        <vehicle id="4" x="16.80" y="-1.60" angle="90.00" type="Car" speed="6.50" pos="16.80" lane="e0_0" slope="0.00"/>
    </timestep>
    <timestep time="14.00">
        <vehicle id="0" x="200.73" y="-1.60" angle="90.00" type="Car01" speed="25.61" pos="200.73" lane="e0_0" slope="0.00"/>
        <vehicle id="1" x="163.07" y="-1.60" angle="90.00" type="Car" speed="24.21" pos="163.07" lane="e0_0" slope="0.00"/>
        <vehicle id="2" x="110.39" y="-1.60" angle="90.00" type="Car" speed="22.10" pos="110.39" lane="e0_0" slope="0.00"/>
        <vehicle id="3" x="59.70" y="-1.60" angle="90.00" type="Car" speed="15.60" pos="59.70" lane="e0_0" slope="0.00"/>
        <vehicle id="4" x="25.90" y="-1.60" angle="90.00" type="Car" speed="9.10" pos="25.90" lane="e0_0" slope="0.00"/>
    </timestep>
    <timestep time="15.00">
        <vehicle id="0" x="228.21" y="-1.60" angle="90.00" type="Car01" speed="27.48" pos="228.21" lane="e0_0" slope="0.00"/>
        <vehicle id="1" x="188.63" y="-1.60" angle="90.00" type="Car" speed="25.57" pos="188.63" lane="e0_0" slope="0.00"/>
        <vehicle id="2" x="135.09" y="-1.60" angle="90.00" type="Car" speed="24.70" pos="135.09" lane="e0_0" slope="0.00"/>
        <vehicle id="3" x="77.90" y="-1.60" angle="90.00" type="Car" speed="18.20" pos="77.90" lane="e0_0" slope="0.00"/>
        <vehicle id="4" x="37.59" y="-1.60" angle="90.00" type="Car" speed="11.70" pos="37.59" lane="e0_0" slope="0.00"/>
    </timestep>
    <timestep time="16.00">
        <vehicle id="0" x="257.01" y="-1.60" angle="90.00" type="Car01" speed="28.81" pos="257.01" lane="e0_0" slope="0.00"/>
        <vehicle id="1" x="215.99" y="-1.60" angle="90.00" type="Car" speed="27.36" pos="215.99" lane="e0_0" slope="0.00"/>
        <vehicle id="2" x="162.39" y="-1.60" angle="90.00" type="Car" speed="27.30" pos="162.39" lane="e0_0" slope="0.00"/>
        <vehicle id="3" x="98.70" y="-1.60" angle="90.00" type="Car" speed="20.80" pos="98.70" lane="e0_0" slope="0.00"/>
        <vehicle id="4" x="51.89" y="-1.60" angle="90.00" type="Car" speed="14.30" pos="51.89" lane="e0_0" slope="0.00"/>
    </timestep>
    <timestep time="17.00">
        <vehicle id="0" x="287.72" y="-1.60" angle="90.00" type="Car01" speed="30.71" pos="287.72" lane="e0_0" slope="0.00"/>
        <vehicle id="1" x="244.75" y="-1.60" angle="90.00" type="Car" speed="28.76" pos="244.75" lane="e0_0" slope="0.00"/>
        <vehicle id="2" x="192.18" y="-1.60" angle="90.00" type="Car" speed="29.79" pos="192.18" lane="e0_0" slope="0.00"/>
        <vehicle id="3" x="122.10" y="-1.60" angle="90.00" type="Car" speed="23.40" pos="122.10" lane="e0_0" slope="0.00"/>
        <vehicle id="4" x="68.79" y="-1.60" angle="90.00" type="Car" speed="16.90" pos="68.79" lane="e0_0" slope="0.00"/>
    </timestep>
    <timestep time="18.00">
        <vehicle id="0" x="320.56" y="-1.60" angle="90.00" type="Car01" speed="32.83" pos="320.56" lane="e0_0" slope="0.00"/>
        <vehicle id="1" x="275.34" y="-1.60" angle="90.00" type="Car" speed="30.59" pos="275.34" lane="e0_0" slope="0.00"/>
        <vehicle id="2" x="223.47" y="-1.60" angle="90.00" type="Car" speed="31.29" pos="223.47" lane="e0_0" slope="0.00"/>
        <vehicle id="3" x="148.10" y="-1.60" angle="90.00" type="Car" speed="26.00" pos="148.10" lane="e0_0" slope="0.00"/>
        <vehicle id="4" x="88.29" y="-1.60" angle="90.00" type="Car" speed="19.50" pos="88.29" lane="e0_0" slope="0.00"/>
    </timestep>
    <timestep time="19.00">
        <vehicle id="0" x="353.17" y="-1.60" angle="90.00" type="Car01" speed="32.61" pos="353.17" lane="e0_0" slope="0.00"/>
        <vehicle id="1" x="306.80" y="-1.60" angle="90.00" type="Car" speed="31.46" pos="306.80" lane="e0_0" slope="0.00"/>
        <vehicle id="2" x="254.84" y="-1.60" angle="90.00" type="Car" speed="31.38" pos="254.84" lane="e0_0" slope="0.00"/>
        <vehicle id="3" x="176.70" y="-1.60" angle="90.00" type="Car" speed="28.60" pos="176.70" lane="e0_0" slope="0.00"/>
        <vehicle id="4" x="110.39" y="-1.60" angle="90.00" type="Car" speed="22.10" pos="110.39" lane="e0_0" slope="0.00"/>
    </timestep>
    <timestep time="20.00">
        <vehicle id="0" x="386.57" y="-1.60" angle="90.00" type="Car01" speed="33.41" pos="386.57" lane="e0_0" slope="0.00"/>
        <vehicle id="1" x="338.26" y="-1.60" angle="90.00" type="Car" speed="31.46" pos="338.26" lane="e0_0" slope="0.00"/>
        <vehicle id="2" x="286.28" y="-1.60" angle="90.00" type="Car" speed="31.44" pos="286.28" lane="e0_0" slope="0.00"/>
        <vehicle id="3" x="207.27" y="-1.60" angle="90.00" type="Car" speed="30.57" pos="207.27" lane="e0_0" slope="0.00"/>
        <vehicle id="4" x="135.09" y="-1.60" angle="90.00" type="Car" speed="24.70" pos="135.09" lane="e0_0" slope="0.00"/>
    </timestep>
    <timestep time="21.00">
        <vehicle id="0" x="419.56" y="-1.60" angle="90.00" type="Car01" speed="32.99" pos="419.56" lane="e0_0" slope="0.00"/>
        <vehicle id="1" x="369.72" y="-1.60" angle="90.00" type="Car" speed="31.46" pos="369.72" lane="e0_0" slope="0.00"/>
        <vehicle id="2" x="317.78" y="-1.60" angle="90.00" type="Car" speed="31.50" pos="317.78" lane="e0_0" slope="0.00"/>
        <vehicle id="3" x="239.03" y="-1.60" angle="90.00" type="Car" speed="31.75" pos="239.03" lane="e0_0" slope="0.00"/>
        <vehicle id="4" x="162.39" y="-1.60" angle="90.00" type="Car" speed="27.30" pos="162.39" lane="e0_0" slope="0.00"/>
    </timestep>
    <timestep time="22.00">
        <vehicle id="0" x="452.25" y="-1.60" angle="90.00" type="Car01" speed="32.69" pos="452.25" lane="e0_0" slope="0.00"/>
        <vehicle id="1" x="401.19" y="-1.60" angle="90.00" type="Car" speed="31.46" pos="401.19" lane="e0_0" slope="0.00"/>
        <vehicle id="2" x="349.33" y="-1.60" angle="90.00" type="Car" speed="31.55" pos="349.33" lane="e0_0" slope="0.00"/>
        <vehicle id="3" x="271.49" y="-1.60" angle="90.00" type="Car" speed="32.46" pos="271.49" lane="e0_0" slope="0.00"/>
        <vehicle id="4" x="192.18" y="-1.60" angle="90.00" type="Car" speed="29.79" pos="192.18" lane="e0_0" slope="0.00"/>
    </timestep>
    <timestep time="23.00">
        <vehicle id="0" x="484.53" y="-1.60" angle="90.00" type="Car01" speed="32.28" pos="484.53" lane="e0_0" slope="0.00"/>
        <vehicle id="1" x="432.65" y="-1.60" angle="90.00" type="Car" speed="31.46" pos="432.65" lane="e0_0" slope="0.00"/>
        <vehicle id="2" x="380.93" y="-1.60" angle="90.00" type="Car" speed="31.60" pos="380.93" lane="e0_0" slope="0.00"/>
        <vehicle id="3" x="304.38" y="-1.60" angle="90.00" type="Car" speed="32.89" pos="304.38" lane="e0_0" slope="0.00"/>
        <vehicle id="4" x="223.47" y="-1.60" angle="90.00" type="Car" speed="31.29" pos="223.47" lane="e0_0" slope="0.00"/>
    </timestep>
    <timestep time="24.00">
        <vehicle id="0" x="517.98" y="-1.60" angle="90.00" type="Car01" speed="33.45" pos="517.98" lane="e0_0" slope="0.00"/>
        <vehicle id="1" x="464.11" y="-1.60" angle="90.00" type="Car" speed="31.46" pos="464.11" lane="e0_0" slope="0.00"/>
        <vehicle id="2" x="412.58" y="-1.60" angle="90.00" type="Car" speed="31.65" pos="412.58" lane="e0_0" slope="0.00"/>
        <vehicle id="3" x="337.52" y="-1.60" angle="90.00" type="Car" speed="33.14" pos="337.52" lane="e0_0" slope="0.00"/>
        <vehicle id="4" x="255.65" y="-1.60" angle="90.00" type="Car" speed="32.18" pos="255.65" lane="e0_0" slope="0.00"/>
    </timestep>
    <timestep time="25.00">
        <vehicle id="0" x="550.57" y="-1.60" angle="90.00" type="Car01" speed="32.59" pos="550.57" lane="e0_0" slope="0.00"/>
        <vehicle id="1" x="495.57" y="-1.60" angle="90.00" type="Car" speed="31.46" pos="495.57" lane="e0_0" slope="0.00"/>
        <vehicle id="2" x="444.26" y="-1.60" angle="90.00" type="Car" speed="31.69" pos="444.26" lane="e0_0" slope="0.00"/>
        <vehicle id="3" x="370.82" y="-1.60" angle="90.00" type="Car" speed="33.30" pos="370.82" lane="e0_0" slope="0.00"/>
        <vehicle id="4" x="288.37" y="-1.60" angle="90.00" type="Car" speed="32.72" pos="288.37" lane="e0_0" slope="0.00"/>
    </timestep>
    <timestep time="26.00">
        <vehicle id="0" x="584.09" y="-1.60" angle="90.00" type="Car01" speed="33.52" pos="584.09" lane="e0_0" slope="0.00"/>
        <vehicle id="1" x="527.03" y="-1.60" angle="90.00" type="Car" speed="31.46" pos="527.03" lane="e0_0" slope="0.00"/>
        <vehicle id="2" x="475.99" y="-1.60" angle="90.00" type="Car" speed="31.73" pos="475.99" lane="e0_0" slope="0.00"/>
        <vehicle id="3" x="404.21" y="-1.60" angle="90.00" type="Car" speed="33.39" pos="404.21" lane="e0_0" slope="0.00"/>
        <vehicle id="4" x="321.41" y="-1.60" angle="90.00" type="Car" speed="33.04" pos="321.41" lane="e0_0" slope="0.00"/>
    </timestep>
    <timestep time="27.00">
        <vehicle id="0" x="617.05" y="-1.60" angle="90.00" type="Car01" speed="32.96" pos="617.05" lane="e0_0" slope="0.00"/>
        <vehicle id="1" x="558.49" y="-1.60" angle="90.00" type="Car" speed="31.46" pos="558.49" lane="e0_0" slope="0.00"/>
        <vehicle id="2" x="507.75" y="-1.60" angle="90.00" type="Car" speed="31.76" pos="507.75" lane="e0_0" slope="0.00"/>
        <vehicle id="3" x="437.66" y="-1.60" angle="90.00" type="Car" speed="33.45" pos="437.66" lane="e0_0" slope="0.00"/>
        <vehicle id="4" x="354.65" y="-1.60" angle="90.00" type="Car" speed="33.24" pos="354.65" lane="e0_0" slope="0.00"/>
    </timestep>
    <timestep time="28.00">
        <vehicle id="0" x="650.51" y="-1.60" angle="90.00" type="Car01" speed="33.46" pos="650.51" lane="e0_0" slope="0.00"/>
        <vehicle id="1" x="589.95" y="-1.60" angle="90.00" type="Car" speed="31.46" pos="589.95" lane="e0_0" slope="0.00"/>
        <vehicle id="2" x="539.55" y="-1.60" angle="90.00" type="Car" speed="31.79" pos="539.55" lane="e0_0" slope="0.00"/>
        <vehicle id="3" x="471.13" y="-1.60" angle="90.00" type="Car" speed="33.48" pos="471.13" lane="e0_0" slope="0.00"/>
        <vehicle id="4" x="388.00" y="-1.60" angle="90.00" type="Car" speed="33.35" pos="388.00" lane="e0_0" slope="0.00"/>
    </timestep>
    <timestep time="29.00">
        <vehicle id="0" x="683.64" y="-1.60" angle="90.00" type="Car01" speed="33.13" pos="683.64" lane="e0_0" slope="0.00"/>
        <vehicle id="1" x="621.42" y="-1.60" angle="90.00" type="Car" speed="31.46" pos="621.42" lane="e0_0" slope="0.00"/>
        <vehicle id="2" x="571.37" y="-1.60" angle="90.00" type="Car" speed="31.82" pos="571.37" lane="e0_0" slope="0.00"/>
        <vehicle id="3" x="504.63" y="-1.60" angle="90.00" type="Car" speed="33.50" pos="504.63" lane="e0_0" slope="0.00"/>
        <vehicle id="4" x="421.43" y="-1.60" angle="90.00" type="Car" speed="33.42" pos="421.43" lane="e0_0" slope="0.00"/>
    </timestep>
    <timestep time="30.00">
        <vehicle id="0" x="716.17" y="-1.60" angle="90.00" type="Car01" speed="32.53" pos="716.17" lane="e0_0" slope="0.00"/>
        <vehicle id="1" x="652.88" y="-1.60" angle="90.00" type="Car" speed="31.46" pos="652.88" lane="e0_0" slope="0.00"/>
        <vehicle id="2" x="603.22" y="-1.60" angle="90.00" type="Car" speed="31.85" pos="603.22" lane="e0_0" slope="0.00"/>
        <vehicle id="3" x="538.14" y="-1.60" angle="90.00" type="Car" speed="33.51" pos="538.14" lane="e0_0" slope="0.00"/>
        <vehicle id="4" x="454.89" y="-1.60" angle="90.00" type="Car" speed="33.47" pos="454.89" lane="e0_0" slope="0.00"/>
    </timestep>
    <timestep time="31.00">
        <vehicle id="0" x="749.34" y="-1.60" angle="90.00" type="Car01" speed="33.17" pos="749.34" lane="e0_0" slope="0.00"/>
        <vehicle id="1" x="684.34" y="-1.60" angle="90.00" type="Car" speed="31.46" pos="684.34" lane="e0_0" slope="0.00"/>
        <vehicle id="2" x="635.09" y="-1.60" angle="90.00" type="Car" speed="31.87" pos="635.09" lane="e0_0" slope="0.00"/>
        <vehicle id="3" x="571.66" y="-1.60" angle="90.00" type="Car" speed="33.52" pos="571.66" lane="e0_0" slope="0.00"/>
        <vehicle id="4" x="488.38" y="-1.60" angle="90.00" type="Car" speed="33.49" pos="488.38" lane="e0_0" slope="0.00"/>
    </timestep>
    <timestep time="32.00">
        <vehicle id="0" x="781.63" y="-1.60" angle="90.00" type="Car01" speed="32.30" pos="781.63" lane="e0_0" slope="0.00"/>
        <vehicle id="1" x="715.80" y="-1.60" angle="90.00" type="Car" speed="31.46" pos="715.80" lane="e0_0" slope="0.00"/>
        <vehicle id="2" x="666.97" y="-1.60" angle="90.00" type="Car" speed="31.89" pos="666.97" lane="e0_0" slope="0.00"/>
        <vehicle id="3" x="605.18" y="-1.60" angle="90.00" type="Car" speed="33.52" pos="605.18" lane="e0_0" slope="0.00"/>
        <vehicle id="4" x="521.89" y="-1.60" angle="90.00" type="Car" speed="33.51" pos="521.89" lane="e0_0" slope="0.00"/>
    </timestep>
    <timestep time="33.00">
        <vehicle id="0" x="814.98" y="-1.60" angle="90.00" type="Car01" speed="33.34" pos="814.98" lane="e0_0" slope="0.00"/>
        <vehicle id="1" x="747.26" y="-1.60" angle="90.00" type="Car" speed="31.46" pos="747.26" lane="e0_0" slope="0.00"/>
        <vehicle id="2" x="698.87" y="-1.60" angle="90.00" type="Car" speed="31.90" pos="698.87" lane="e0_0" slope="0.00"/>
        <vehicle id="3" x="638.71" y="-1.60" angle="90.00" type="Car" speed="33.52" pos="638.71" lane="e0_0" slope="0.00"/>
        <vehicle id="4" x="555.40" y="-1.60" angle="90.00" type="Car" speed="33.51" pos="555.40" lane="e0_0" slope="0.00"/>
    </timestep>
    <timestep time="34.00">
        <vehicle id="0" x="847.75" y="-1.60" angle="90.00" type="Car01" speed="32.77" pos="847.75" lane="e0_0" slope="0.00"/>
        <vehicle id="1" x="778.72" y="-1.60" angle="90.00" type="Car" speed="31.46" pos="778.72" lane="e0_0" slope="0.00"/>
        <vehicle id="2" x="730.78" y="-1.60" angle="90.00" type="Car" speed="31.91" pos="730.78" lane="e0_0" slope="0.00"/>
        <vehicle id="3" x="672.23" y="-1.60" angle="90.00" type="Car" speed="33.53" pos="672.23" lane="e0_0" slope="0.00"/>
        <vehicle id="4" x="588.92" y="-1.60" angle="90.00" type="Car" speed="33.52" pos="588.92" lane="e0_0" slope="0.00"/>
    </timestep>
    <timestep time="35.00">
        <vehicle id="0" x="881.19" y="-1.60" angle="90.00" type="Car01" speed="33.44" pos="881.19" lane="e0_0" slope="0.00"/>
        <vehicle id="1" x="810.18" y="-1.60" angle="90.00" type="Car" speed="31.46" pos="810.18" lane="e0_0" slope="0.00"/>
        <vehicle id="2" x="762.70" y="-1.60" angle="90.00" type="Car" speed="31.92" pos="762.70" lane="e0_0" slope="0.00"/>
        <vehicle id="3" x="705.76" y="-1.60" angle="90.00" type="Car" speed="33.53" pos="705.76" lane="e0_0" slope="0.00"/>
        <vehicle id="4" x="622.44" y="-1.60" angle="90.00" type="Car" speed="33.52" pos="622.44" lane="e0_0" slope="0.00"/>
    </timestep>
    <timestep time="36.00">
        <vehicle id="0" x="913.83" y="-1.60" angle="90.00" type="Car01" speed="32.64" pos="913.83" lane="e0_0" slope="0.00"/>
        <vehicle id="1" x="841.65" y="-1.60" angle="90.00" type="Car" speed="31.46" pos="841.65" lane="e0_0" slope="0.00"/>
        <vehicle id="2" x="794.63" y="-1.60" angle="90.00" type="Car" speed="31.92" pos="794.63" lane="e0_0" slope="0.00"/>
        <vehicle id="3" x="739.27" y="-1.60" angle="90.00" type="Car" speed="33.51" pos="739.27" lane="e0_0" slope="0.00"/>
        <vehicle id="4" x="655.97" y="-1.60" angle="90.00" type="Car" speed="33.53" pos="655.97" lane="e0_0" slope="0.00"/>
    </timestep>
    <timestep time="37.00">
        <vehicle id="0" x="947.29" y="-1.60" angle="90.00" type="Car01" speed="33.46" pos="947.29" lane="e0_0" slope="0.00"/>
        <vehicle id="1" x="873.11" y="-1.60" angle="90.00" type="Car" speed="31.46" pos="873.11" lane="e0_0" slope="0.00"/>
        <vehicle id="2" x="826.55" y="-1.60" angle="90.00" type="Car" speed="31.93" pos="826.55" lane="e0_0" slope="0.00"/>
        <vehicle id="3" x="772.76" y="-1.60" angle="90.00" type="Car" speed="33.49" pos="772.76" lane="e0_0" slope="0.00"/>
        <vehicle id="4" x="689.50" y="-1.60" angle="90.00" type="Car" speed="33.53" pos="689.50" lane="e0_0" slope="0.00"/>
    </timestep>
    <timestep time="38.00">
        <vehicle id="0" x="980.07" y="-1.60" angle="90.00" type="Car01" speed="32.78" pos="980.07" lane="e0_0" slope="0.00"/>
        <vehicle id="1" x="904.57" y="-1.60" angle="90.00" type="Car" speed="31.46" pos="904.57" lane="e0_0" slope="0.00"/>
        <vehicle id="2" x="858.48" y="-1.60" angle="90.00" type="Car" speed="31.93" pos="858.48" lane="e0_0" slope="0.00"/>
        <vehicle id="3" x="806.23" y="-1.60" angle="90.00" type="Car" speed="33.46" pos="806.23" lane="e0_0" slope="0.00"/>
        <vehicle id="4" x="723.02" y="-1.60" angle="90.00" type="Car" speed="33.53" pos="723.02" lane="e0_0" slope="0.00"/>
    </timestep>
    <timestep time="39.00">
        <vehicle id="0" x="1013.11" y="-1.60" angle="90.00" type="Car01" speed="33.04" pos="1013.11" lane="e0_0" slope="0.00"/>
        <vehicle id="1" x="936.03" y="-1.60" angle="90.00" type="Car" speed="31.46" pos="936.03" lane="e0_0" slope="0.00"/>
        <vehicle id="2" x="890.40" y="-1.60" angle="90.00" type="Car" speed="31.92" pos="890.40" lane="e0_0" slope="0.00"/>
        <vehicle id="3" x="839.66" y="-1.60" angle="90.00" type="Car" speed="33.43" pos="839.66" lane="e0_0" slope="0.00"/>
        <vehicle id="4" x="756.55" y="-1.60" angle="90.00" type="Car" speed="33.53" pos="756.55" lane="e0_0" slope="0.00"/>
    </timestep>
    <timestep time="40.00">
        <vehicle id="0" x="1045.36" y="-1.60" angle="90.00" type="Car01" speed="32.25" pos="1045.36" lane="e0_0" slope="0.00"/>
        <vehicle id="1" x="967.49" y="-1.60" angle="90.00" type="Car" speed="31.46" pos="967.49" lane="e0_0" slope="0.00"/>
        <vehicle id="2" x="922.32" y="-1.60" angle="90.00" type="Car" speed="31.92" pos="922.32" lane="e0_0" slope="0.00"/>
        <vehicle id="3" x="873.05" y="-1.60" angle="90.00" type="Car" speed="33.39" pos="873.05" lane="e0_0" slope="0.00"/>
        <vehicle id="4" x="790.08" y="-1.60" angle="90.00" type="Car" speed="33.53" pos="790.08" lane="e0_0" slope="0.00"/>
    </timestep>
    <timestep time="41.00">
        <vehicle id="0" x="1078.46" y="-1.60" angle="90.00" type="Car01" speed="33.10" pos="1078.46" lane="e0_0" slope="0.00"/>
        <vehicle id="1" x="998.95" y="-1.60" angle="90.00" type="Car" speed="31.46" pos="998.95" lane="e0_0" slope="0.00"/>
        <vehicle id="2" x="954.24" y="-1.60" angle="90.00" type="Car" speed="31.91" pos="954.24" lane="e0_0" slope="0.00"/>
        <vehicle id="3" x="906.39" y="-1.60" angle="90.00" type="Car" speed="33.34" pos="906.39" lane="e0_0" slope="0.00"/>
        <vehicle id="4" x="823.61" y="-1.60" angle="90.00" type="Car" speed="33.53" pos="823.61" lane="e0_0" slope="0.00"/>
    </timestep>
    <timestep time="42.00">
        <vehicle id="0" x="1111.66" y="-1.60" angle="90.00" type="Car01" speed="33.20" pos="1111.66" lane="e0_0" slope="0.00"/>
        <vehicle id="1" x="1030.41" y="-1.60" angle="90.00" type="Car" speed="31.46" pos="1030.41" lane="e0_0" slope="0.00"/>
        <vehicle id="2" x="986.14" y="-1.60" angle="90.00" type="Car" speed="31.90" pos="986.14" lane="e0_0" slope="0.00"/>
        <vehicle id="3" x="939.68" y="-1.60" angle="90.00" type="Car" speed="33.29" pos="939.68" lane="e0_0" slope="0.00"/>
        <vehicle id="4" x="857.13" y="-1.60" angle="90.00" type="Car" speed="33.53" pos="857.13" lane="e0_0" slope="0.00"/>
    </timestep>
    <timestep time="43.00">
        <vehicle id="0" x="1144.81" y="-1.60" angle="90.00" type="Car01" speed="33.15" pos="1144.81" lane="e0_0" slope="0.00"/>
        <vehicle id="1" x="1061.87" y="-1.60" angle="90.00" type="Car" speed="31.46" pos="1061.87" lane="e0_0" slope="0.00"/>
        <vehicle id="2" x="1018.03" y="-1.60" angle="90.00" type="Car" speed="31.89" pos="1018.03" lane="e0_0" slope="0.00"/>
        <vehicle id="3" x="972.92" y="-1.60" angle="90.00" type="Car" speed="33.24" pos="972.92" lane="e0_0" slope="0.00"/>
        <vehicle id="4" x="890.66" y="-1.60" angle="90.00" type="Car" speed="33.53" pos="890.66" lane="e0_0" slope="0.00"/>
    </timestep>
    <timestep time="44.00">
        <vehicle id="0" x="1177.75" y="-1.60" angle="90.00" type="Car01" speed="32.94" pos="1177.75" lane="e0_0" slope="0.00"/>
        <vehicle id="1" x="1093.34" y="-1.60" angle="90.00" type="Car" speed="31.46" pos="1093.34" lane="e0_0" slope="0.00"/>
        <vehicle id="2" x="1049.91" y="-1.60" angle="90.00" type="Car" speed="31.88" pos="1049.91" lane="e0_0" slope="0.00"/>
        <vehicle id="3" x="1006.10" y="-1.60" angle="90.00" type="Car" speed="33.18" pos="1006.10" lane="e0_0" slope="0.00"/>
        <vehicle id="4" x="924.19" y="-1.60" angle="90.00" type="Car" speed="33.53" pos="924.19" lane="e0_0" slope="0.00"/>
    </timestep>
    <timestep time="45.00">
        <vehicle id="0" x="1210.87" y="-1.60" angle="90.00" type="Car01" speed="33.11" pos="1210.87" lane="e0_0" slope="0.00"/>
        <vehicle id="1" x="1124.80" y="-1.60" angle="90.00" type="Car" speed="31.46" pos="1124.80" lane="e0_0" slope="0.00"/>
        <vehicle id="2" x="1081.78" y="-1.60" angle="90.00" type="Car" speed="31.87" pos="1081.78" lane="e0_0" slope="0.00"/>
        <vehicle id="3" x="1039.21" y="-1.60" angle="90.00" type="Car" speed="33.11" pos="1039.21" lane="e0_0" slope="0.00"/>
        <vehicle id="4" x="957.72" y="-1.60" angle="90.00" type="Car" speed="33.53" pos="957.72" lane="e0_0" slope="0.00"/>
    </timestep>
    <timestep time="46.00">
        <vehicle id="0" x="1243.97" y="-1.60" angle="90.00" type="Car01" speed="33.10" pos="1243.97" lane="e0_0" slope="0.00"/>
        <vehicle id="1" x="1156.26" y="-1.60" angle="90.00" type="Car" speed="31.46" pos="1156.26" lane="e0_0" slope="0.00"/>
        <vehicle id="2" x="1113.63" y="-1.60" angle="90.00" type="Car" speed="31.85" pos="1113.63" lane="e0_0" slope="0.00"/>
        <vehicle id="3" x="1072.01" y="-1.60" angle="90.00" type="Car" speed="32.80" pos="1072.01" lane="e0_0" slope="0.00"/>
        <vehicle id="4" x="991.25" y="-1.60" angle="90.00" type="Car" speed="33.53" pos="991.25" lane="e0_0" slope="0.00"/>
    </timestep>
    <timestep time="47.00">
        <vehicle id="0" x="1277.02" y="-1.60" angle="90.00" type="Car01" speed="33.05" pos="1277.02" lane="e0_0" slope="0.00"/>
        <vehicle id="1" x="1187.72" y="-1.60" angle="90.00" type="Car" speed="31.46" pos="1187.72" lane="e0_0" slope="0.00"/>
        <vehicle id="2" x="1145.47" y="-1.60" angle="90.00" type="Car" speed="31.84" pos="1145.47" lane="e0_0" slope="0.00"/>
        <vehicle id="3" x="1104.22" y="-1.60" angle="90.00" type="Car" speed="32.21" pos="1104.22" lane="e0_0" slope="0.00"/>