<?xml version="1.0" encoding="UTF-8"?>

<!-- generated on 09/30/22 19:29:41 by Eclipse SUMO GUI Version 1.8.0
<configuration xmlns:xsi="http://www.w3.org/2001/XMLSchema-instance" xsi:noNamespaceSchemaLocation="http://sumo.dlr.de/xsd/sumoConfiguration.xsd">

    <input>
        <net-file value="cacc_platooning_a1_full.net.xml"/>
        <route-files value="20220930%20cacc_platooning_a1.py%20_tripInfo\005.rou.xml"/>
        <additional-files value="20220930%20cacc_platooning_a1.py%20_tripInfo\005.add.xml"/>
    </input>

    <output>
        <emission-output value="20220930%20cacc_platooning_a1.py%20_tripInfo\005_emissions.xml"/>
        <fcd-output value="20220930%20cacc_platooning_a1.py%20_tripInfo\005_fcdout.xml"/>
        <full-output value="20220930%20cacc_platooning_a1.py%20_tripInfo\005_fullout.xml"/>
        <tripinfo-output value="20220930%20cacc_platooning_a1.py%20_tripInfo\005_tripinfo.xml"/>
    </output>

    <time>
        <begin value="0"/>
        <end value="10000"/>
    </time>

    <processing>
        <time-to-teleport value="-1"/>
    </processing>

    <ssm_device>
        <device.ssm.probability value="1"/>
        <device.ssm.file value="20220930 cacc_platooning_a1.py _tripInfo\005_ssm.xml"/>
    </ssm_device>

    <traci_server>
        <remote-port value="52489"/>
    </traci_server>

</configuration>
-->

<emission-export xmlns:xsi="http://www.w3.org/2001/XMLSchema-instance" xsi:noNamespaceSchemaLocation="http://sumo.dlr.de/xsd/emission_file.xsd">
    <timestep time="0.00">
        <vehicle id="0" eclass="HBEFA3/PC_G_EU4" CO2="2624.72" CO="164.78" HC="0.81" NOx="1.20" PMx="0.07" fuel="1.13" electricity="0.00" noise="55.94" route="route01" type="Car01" waiting="0.00" lane="e0_0" pos="5.10" speed="0.00" angle="90.00" x="5.10" y="-1.60"/>
    </timestep>
    <timestep time="1.00">
        <vehicle id="0" eclass="HBEFA3/PC_G_EU4" CO2="3220.52" CO="147.38" HC="0.75" NOx="1.44" PMx="0.07" fuel="1.38" electricity="0.00" noise="64.31" route="route01" type="Car01" waiting="0.00" lane="e0_0" pos="6.85" speed="1.75" angle="90.00" x="6.85" y="-1.60"/>
    </timestep>
    <timestep time="2.00">
        <vehicle id="0" eclass="HBEFA3/PC_G_EU4" CO2="4072.23" CO="135.53" HC="0.71" NOx="1.79" PMx="0.09" fuel="1.75" electricity="0.00" noise="65.78" route="route01" type="Car01" waiting="0.00" lane="e0_0" pos="10.51" speed="3.66" angle="90.00" x="10.51" y="-1.60"/>
    </timestep>
    <timestep time="3.00">
        <vehicle id="0" eclass="HBEFA3/PC_G_EU4" CO2="5268.60" CO="131.43" HC="0.72" NOx="2.30" PMx="0.11" fuel="2.26" electricity="0.00" noise="67.48" route="route01" type="Car01" waiting="0.00" lane="e0_0" pos="16.25" speed="5.75" angle="90.00" x="16.25" y="-1.60"/>
        <vehicle id="1" eclass="HBEFA3/PC_G_EU4" CO2="2624.72" CO="164.78" HC="0.81" NOx="1.20" PMx="0.07" fuel="1.13" electricity="0.00" noise="55.94" route="route01" type="Car" waiting="0.00" lane="e0_0" pos="5.10" speed="0.00" angle="90.00" x="5.10" y="-1.60"/>
    </timestep>
    <timestep time="4.00">
        <vehicle id="0" eclass="HBEFA3/PC_G_EU4" CO2="5120.33" CO="109.05" HC="0.62" NOx="2.18" PMx="0.10" fuel="2.20" electricity="0.00" noise="66.06" route="route01" type="Car01" waiting="0.00" lane="e0_0" pos="23.58" speed="7.33" angle="90.00" x="23.58" y="-1.60"/>
        <vehicle id="1" eclass="HBEFA3/PC_G_EU4" CO2="4102.54" CO="152.07" HC="0.79" NOx="1.83" PMx="0.09" fuel="1.76" electricity="0.00" noise="68.38" route="route01" type="Car" waiting="0.00" lane="e0_0" pos="7.70" speed="2.60" angle="90.00" x="7.70" y="-1.60"/>
    </timestep>
    <timestep time="5.00">
        <vehicle id="0" eclass="HBEFA3/PC_G_EU4" CO2="5796.42" CO="105.63" HC="0.62" NOx="2.46" PMx="0.11" fuel="2.49" electricity="0.00" noise="66.90" route="route01" type="Car01" waiting="0.00" lane="e0_0" pos="32.51" speed="8.92" angle="90.00" x="32.51" y="-1.60"/>
        <vehicle id="1" eclass="HBEFA3/PC_G_EU4" CO2="5686.50" CO="147.20" HC="0.81" NOx="2.51" PMx="0.12" fuel="2.44" electricity="0.00" noise="69.46" route="route01" type="Car" waiting="0.00" lane="e0_0" pos="12.90" speed="5.20" angle="90.00" x="12.90" y="-1.60"/>
        <vehicle id="2" eclass="HBEFA3/PC_G_EU4" CO2="2624.72" CO="164.78" HC="0.81" NOx="1.20" PMx="0.07" fuel="1.13" electricity="0.00" noise="55.94" route="route01" type="Car" waiting="0.00" lane="e0_0" pos="5.10" speed="0.00" angle="90.00" x="5.10" y="-1.60"/>
    </timestep>
    <timestep time="6.00">
        <vehicle id="0" eclass="HBEFA3/PC_G_EU4" CO2="8139.33" CO="134.35" HC="0.81" NOx="3.51" PMx="0.17" fuel="3.50" electricity="0.00" noise="69.97" route="route01" type="Car01" waiting="0.00" lane="e0_0" pos="43.52" speed="11.01" angle="90.00" x="43.52" y="-1.60"/>
        <vehicle id="1" eclass="HBEFA3/PC_G_EU4" CO2="7376.59" CO="150.16" HC="0.86" NOx="3.24" PMx="0.16" fuel="3.17" electricity="0.00" noise="70.61" route="route01" type="Car" waiting="0.00" lane="e0_0" pos="20.70" speed="7.80" angle="90.00" x="20.70" y="-1.60"/>
        <vehicle id="2" eclass="HBEFA3/PC_G_EU4" CO2="2909.27" CO="148.38" HC="0.74" NOx="1.30" PMx="0.07" fuel="1.25" electricity="0.00" noise="62.15" route="route01" type="Car" waiting="0.00" lane="e0_0" pos="6.40" speed="1.30" angle="90.00" x="6.40" y="-1.60"/>
    </timestep>
    <timestep time="7.00">
        <vehicle id="0" eclass="HBEFA3/PC_G_EU4" CO2="8031.83" CO="118.65" HC="0.73" NOx="3.42" PMx="0.16" fuel="3.45" electricity="0.00" noise="69.46" route="route01" type="Car01" waiting="0.00" lane="e0_0" pos="56.27" speed="12.75" angle="90.00" x="56.27" y="-1.60"/>
        <vehicle id="1" eclass="HBEFA3/PC_G_EU4" CO2="9172.80" CO="160.95" HC="0.95" NOx="4.02" PMx="0.20" fuel="3.94" electricity="0.00" noise="71.82" route="route01" type="Car" waiting="0.00" lane="e0_0" pos="31.10" speed="10.40" angle="90.00" x="31.10" y="-1.60"/>
        <vehicle id="2" eclass="HBEFA3/PC_G_EU4" CO2="4880.65" CO="148.66" HC="0.79" NOx="2.16" PMx="0.11" fuel="2.10" electricity="0.00" noise="68.91" route="route01" type="Car" waiting="0.00" lane="e0_0" pos="10.30" speed="3.90" angle="90.00" x="10.30" y="-1.60"/>
    </timestep>
    <timestep time="8.00">
        <vehicle id="0" eclass="HBEFA3/PC_G_EU4" CO2="10496.02" CO="156.56" HC="0.97" NOx="4.53" PMx="0.22" fuel="4.51" electricity="0.00" noise="71.88" route="route01" type="Car01" waiting="0.00" lane="e0_0" pos="71.10" speed="14.84" angle="90.00" x="71.10" y="-1.60"/>
        <vehicle id="1" eclass="HBEFA3/PC_G_EU4" CO2="11075.16" CO="179.58" HC="1.09" NOx="4.85" PMx="0.24" fuel="4.76" electricity="0.00" noise="73.06" route="route01" type="Car" waiting="0.00" lane="e0_0" pos="44.10" speed="13.00" angle="90.00" x="44.10" y="-1.60"/>
        <vehicle id="2" eclass="HBEFA3/PC_G_EU4" CO2="6517.63" CO="147.70" HC="0.83" NOx="2.87" PMx="0.14" fuel="2.80" electricity="0.00" noise="70.03" route="route01" type="Car" waiting="0.00" lane="e0_0" pos="16.80" speed="6.50" angle="90.00" x="16.80" y="-1.60"/>
        <vehicle id="3" eclass="HBEFA3/PC_G_EU4" CO2="2624.72" CO="164.78" HC="0.81" NOx="1.20" PMx="0.07" fuel="1.13" electricity="0.00" noise="55.94" route="route01" type="Car" waiting="0.00" lane="e0_0" pos="5.10" speed="0.00" angle="90.00" x="5.10" y="-1.60"/>
    </timestep>
    <timestep time="9.00">
        <vehicle id="0" eclass="HBEFA3/PC_G_EU4" CO2="12276.82" CO="183.76" HC="1.14" NOx="5.32" PMx="0.27" fuel="5.28" electricity="0.00" noise="73.28" route="route01" type="Car01" waiting="0.00" lane="e0_0" pos="88.11" speed="17.00" angle="90.00" x="88.11" y="-1.60"/>
        <vehicle id="1" eclass="HBEFA3/PC_G_EU4" CO2="13083.64" CO="206.05" HC="1.26" NOx="5.73" PMx="0.29" fuel="5.62" electricity="0.00" noise="74.32" route="route01" type="Car" waiting="0.00" lane="e0_0" pos="59.70" speed="15.60" angle="90.00" x="59.70" y="-1.60"/>
        <vehicle id="2" eclass="HBEFA3/PC_G_EU4" CO2="8260.74" CO="154.57" HC="0.90" NOx="3.62" PMx="0.18" fuel="3.55" electricity="0.00" noise="71.21" route="route01" type="Car" waiting="0.00" lane="e0_0" pos="25.90" speed="9.10" angle="90.00" x="25.90" y="-1.60"/>
        <vehicle id="3" eclass="HBEFA3/PC_G_EU4" CO2="4102.54" CO="152.07" HC="0.79" NOx="1.83" PMx="0.09" fuel="1.76" electricity="0.00" noise="68.38" route="route01" type="Car" waiting="0.00" lane="e0_0" pos="7.70" speed="2.60" angle="90.00" x="7.70" y="-1.60"/>
    </timestep>
    <timestep time="10.00">
        <vehicle id="0" eclass="HBEFA3/PC_G_EU4" CO2="12714.43" CO="187.56" HC="1.17" NOx="5.48" PMx="0.28" fuel="5.47" electricity="0.00" noise="73.53" route="route01" type="Car01" waiting="0.00" lane="e0_0" pos="107.07" speed="18.97" angle="90.00" x="107.07" y="-1.60"/>
        <vehicle id="1" eclass="HBEFA3/PC_G_EU4" CO2="8561.38" CO="107.50" HC="0.70" NOx="3.57" PMx="0.17" fuel="3.68" electricity="0.00" noise="70.23" route="route01" type="Car" waiting="0.00" lane="e0_0" pos="76.63" speed="16.93" angle="90.00" x="76.63" y="-1.60"/>
        <vehicle id="2" eclass="HBEFA3/PC_G_EU4" CO2="10109.98" CO="169.28" HC="1.02" NOx="4.43" PMx="0.22" fuel="4.35" electricity="0.00" noise="72.43" route="route01" type="Car" waiting="0.00" lane="e0_0" pos="37.59" speed="11.70" angle="90.00" x="37.59" y="-1.60"/>
        <vehicle id="3" eclass="HBEFA3/PC_G_EU4" CO2="5686.50" CO="147.20" HC="0.81" NOx="2.51" PMx="0.12" fuel="2.44" electricity="0.00" noise="69.46" route="route01" type="Car" waiting="0.00" lane="e0_0" pos="12.90" speed="5.20" angle="90.00" x="12.90" y="-1.60"/>
        <vehicle id="4" eclass="HBEFA3/PC_G_EU4" CO2="2624.72" CO="164.78" HC="0.81" NOx="1.20" PMx="0.07" fuel="1.13" electricity="0.00" noise="55.94" route="route01" type="Car" waiting="0.00" lane="e0_0" pos="5.10" speed="0.00" angle="90.00" x="5.10" y="-1.60"/>
    </timestep>
    <timestep time="11.00">
        <vehicle id="0" eclass="HBEFA3/PC_G_EU4" CO2="13816.98" CO="208.29" HC="1.29" NOx="5.95" PMx="0.31" fuel="5.94" electricity="0.00" noise="74.35" route="route01" type="Car01" waiting="0.00" lane="e0_0" pos="127.96" speed="20.89" angle="90.00" x="127.96" y="-1.60"/>
        <vehicle id="1" eclass="HBEFA3/PC_G_EU4" CO2="12117.02" CO="175.57" HC="1.10" NOx="5.20" PMx="0.27" fuel="5.21" electricity="0.00" noise="73.08" route="route01" type="Car" waiting="0.00" lane="e0_0" pos="95.43" speed="18.80" angle="90.00" x="95.43" y="-1.60"/>
        <vehicle id="2" eclass="HBEFA3/PC_G_EU4" CO2="12065.36" CO="191.83" HC="1.17" NOx="5.28" PMx="0.27" fuel="5.19" electricity="0.00" noise="73.69" route="route01" type="Car" waiting="0.00" lane="e0_0" pos="51.89" speed="14.30" angle="90.00" x="51.89" y="-1.60"/>
        <vehicle id="3" eclass="HBEFA3/PC_G_EU4" CO2="7376.59" CO="150.16" HC="0.86" NOx="3.24" PMx="0.16" fuel="3.17" electricity="0.00" noise="70.61" route="route01" type="Car" waiting="0.00" lane="e0_0" pos="20.70" speed="7.80" angle="90.00" x="20.70" y="-1.60"/>
        <vehicle id="4" eclass="HBEFA3/PC_G_EU4" CO2="2909.27" CO="148.38" HC="0.74" NOx="1.30" PMx="0.07" fuel="1.25" electricity="0.00" noise="62.15" route="route01" type="Car" waiting="0.00" lane="e0_0" pos="6.40" speed="1.30" angle="90.00" x="6.40" y="-1.60"/>
    </timestep>
    <timestep time="12.00">
        <vehicle id="0" eclass="HBEFA3/PC_G_EU4" CO2="15582.73" CO="245.86" HC="1.50" NOx="6.74" PMx="0.36" fuel="6.70" electricity="0.00" noise="75.55" route="route01" type="Car01" waiting="0.00" lane="e0_0" pos="150.84" speed="22.87" angle="90.00" x="150.84" y="-1.60"/>
        <vehicle id="1" eclass="HBEFA3/PC_G_EU4" CO2="13687.16" CO="205.67" HC="1.27" NOx="5.89" PMx="0.31" fuel="5.88" electricity="0.00" noise="74.25" route="route01" type="Car" waiting="0.00" lane="e0_0" pos="116.16" speed="20.72" angle="90.00" x="116.16" y="-1.60"/>
        <vehicle id="2" eclass="HBEFA3/PC_G_EU4" CO2="14126.87" CO="222.20" HC="1.36" NOx="6.19" PMx="0.32" fuel="6.07" electricity="0.00" noise="74.96" route="route01" type="Car" waiting="0.00" lane="e0_0" pos="68.79" speed="16.90" angle="90.00" x="68.79" y="-1.60"/>
        <vehicle id="3" eclass="HBEFA3/PC_G_EU4" CO2="9172.80" CO="160.95" HC="0.95" NOx="4.02" PMx="0.20" fuel="3.94" electricity="0.00" noise="71.82" route="route01" type="Car" waiting="0.00" lane="e0_0" pos="31.10" speed="10.40" angle="90.00" x="31.10" y="-1.60"/>
        <vehicle id="4" eclass="HBEFA3/PC_G_EU4" CO2="4880.65" CO="148.66" HC="0.79" NOx="2.16" PMx="0.11" fuel="2.10" electricity="0.00" noise="68.91" route="route01" type="Car" waiting="0.00" lane="e0_0" pos="10.30" speed="3.90" angle="90.00" x="10.30" y="-1.60"/>
    </timestep>
    <timestep time="13.00">
        <vehicle id="0" eclass="HBEFA3/PC_G_EU4" CO2="12998.72" CO="195.50" HC="1.21" NOx="5.49" PMx="0.30" fuel="5.59" electricity="0.00" noise="74.32" route="route01" type="Car01" waiting="0.00" lane="e0_0" pos="175.12" speed="24.28" angle="90.00" x="175.12" y="-1.60"/>
        <vehicle id="1" eclass="HBEFA3/PC_G_EU4" CO2="15437.40" CO="242.63" HC="1.49" NOx="6.67" PMx="0.36" fuel="6.64" electricity="0.00" noise="75.46" route="route01" type="Car" waiting="0.00" lane="e0_0" pos="138.86" speed="22.70" angle="90.00" x="138.86" y="-1.60"/>
        <vehicle id="2" eclass="HBEFA3/PC_G_EU4" CO2="16294.51" CO="260.41" HC="1.59" NOx="7.15" PMx="0.37" fuel="7.00" electricity="0.00" noise="76.23" route="route01" type="Car" waiting="0.00" lane="e0_0" pos="88.29" speed="19.50" angle="90.00" x="88.29" y="-1.60"/>
        <vehicle id="3" eclass="HBEFA3/PC_G_EU4" CO2="11075.16" CO="179.58" HC="1.09" NOx="4.85" PMx="0.24" fuel="4.76" electricity="0.00" noise="73.06" route="route01" type="Car" waiting="0.00" lane="e0_0" pos="44.10" speed="13.00" angle="90.00" x="44.10" y="-1.60"/>
        <vehicle id="4" eclass="HBEFA3/PC_G_EU4" CO2="6517.63" CO="147.70" HC="0.83" NOx="2.87" PMx="0.14" fuel="2.80" electricity="0.00" noise="70.03" route="route01" type="Car" waiting="0.00" lane="e0_0" pos="16.80" speed="6.50" angle="90.00" x="16.80" y="-1.60"/>
    </timestep>
    <timestep time="14.00">
        <vehicle id="0" eclass="HBEFA3/PC_G_EU4" CO2="13319.90" CO="206.33" HC="1.27" NOx="5.61" PMx="0.31" fuel="5.73" electricity="0.00" noise="74.75" route="route01" type="Car01" waiting="0.00" lane="e0_0" pos="200.73" speed="25.61" angle="90.00" x="200.73" y="-1.60"/>
        <vehicle id="1" eclass="HBEFA3/PC_G_EU4" CO2="13575.90" CO="207.20" HC="1.28" NOx="5.76" PMx="0.31" fuel="5.84" electricity="0.00" noise="74.59" route="route01" type="Car" waiting="0.00" lane="e0_0" pos="163.07" speed="24.21" angle="90.00" x="163.07" y="-1.60"/>
        <vehicle id="2" eclass="HBEFA3/PC_G_EU4" CO2="18568.28" CO="306.46" HC="1.85" NOx="8.16" PMx="0.44" fuel="7.98" electricity="0.00" noise="77.50" route="route01" type="Car" waiting="0.00" lane="e0_0" pos="110.39" speed="22.10" angle="90.00" x="110.39" y="-1.60"/>
        <vehicle id="3" eclass="HBEFA3/PC_G_EU4" CO2="13083.64" CO="206.05" HC="1.26" NOx="5.73" PMx="0.29" fuel="5.62" electricity="0.00" noise="74.32" route="route01" type="Car" waiting="0.00" lane="e0_0" pos="59.70" speed="15.60" angle="90.00" x="59.70" y="-1.60"/>
        <vehicle id="4" eclass="HBEFA3/PC_G_EU4" CO2="8260.74" CO="154.57" HC="0.90" NOx="3.62" PMx="0.18" fuel="3.55" electricity="0.00" noise="71.21" route="route01" type="Car" waiting="0.00" lane="e0_0" pos="25.90" speed="9.10" angle="90.00" x="25.90" y="-1.60"/>
    </timestep>
    <timestep time="15.00">
        <vehicle id="0" eclass="HBEFA3/PC_G_EU4" CO2="18395.10" CO="319.25" HC="1.91" NOx="7.96" PMx="0.45" fuel="7.91" electricity="0.00" noise="77.43" route="route01" type="Car01" waiting="0.00" lane="e0_0" pos="228.21" speed="27.48" angle="90.00" x="228.21" y="-1.60"/>
        <vehicle id="1" eclass="HBEFA3/PC_G_EU4" CO2="13500.55" CO="209.89" HC="1.29" NOx="5.69" PMx="0.31" fuel="5.80" electricity="0.00" noise="74.82" route="route01" type="Car" waiting="0.00" lane="e0_0" pos="188.63" speed="25.57" angle="90.00" x="188.63" y="-1.60"/>
        <vehicle id="2" eclass="HBEFA3/PC_G_EU4" CO2="20948.18" CO="360.34" HC="2.16" NOx="9.23" PMx="0.50" fuel="9.00" electricity="0.00" noise="78.77" route="route01" type="Car" waiting="0.00" lane="e0_0" pos="135.09" speed="24.70" angle="90.00" x="135.09" y="-1.60"/>
        <vehicle id="3" eclass="HBEFA3/PC_G_EU4" CO2="15198.25" CO="240.34" HC="1.47" NOx="6.67" PMx="0.35" fuel="6.53" electricity="0.00" noise="75.60" route="route01" type="Car" waiting="0.00" lane="e0_0" pos="77.90" speed="18.20" angle="90.00" x="77.90" y="-1.60"/>
        <vehicle id="4" eclass="HBEFA3/PC_G_EU4" CO2="10109.98" CO="169.28" HC="1.02" NOx="4.43" PMx="0.22" fuel="4.35" electricity="0.00" noise="72.43" route="route01" type="Car" waiting="0.00" lane="e0_0" pos="37.59" speed="11.70" angle="90.00" x="37.59" y="-1.60"/>
    </timestep>
    <timestep time="16.00">
        <vehicle id="0" eclass="HBEFA3/PC_G_EU4" CO2="15367.99" CO="264.68" HC="1.59" NOx="6.50" PMx="0.37" fuel="6.61" electricity="0.00" noise="76.32" route="route01" type="Car01" waiting="0.00" lane="e0_0" pos="257.01" speed="28.81" angle="90.00" x="257.01" y="-1.60"/>
        <vehicle id="1" eclass="HBEFA3/PC_G_EU4" CO2="17726.41" CO="304.84" HC="1.83" NOx="7.65" PMx="0.43" fuel="7.62" electricity="0.00" noise="77.09" route="route01" type="Car" waiting="0.00" lane="e0_0" pos="215.99" speed="27.36" angle="90.00" x="215.99" y="-1.60"/>
        <vehicle id="2" eclass="HBEFA3/PC_G_EU4" CO2="23434.22" CO="422.05" HC="2.51" NOx="10.34" PMx="0.58" fuel="10.07" electricity="0.00" noise="80.03" route="route01" type="Car" waiting="0.00" lane="e0_0" pos="162.39" speed="27.30" angle="90.00" x="162.39" y="-1.60"/>
        <vehicle id="3" eclass="HBEFA3/PC_G_EU4" CO2="17419.00" CO="282.48" HC="1.72" NOx="7.65" PMx="0.41" fuel="7.49" electricity="0.00" noise="76.87" route="route01" type="Car" waiting="0.00" lane="e0_0" pos="98.70" speed="20.80" angle="90.00" x="98.70" y="-1.60"/>
        <vehicle id="4" eclass="HBEFA3/PC_G_EU4" CO2="12065.36" CO="191.83" HC="1.17" NOx="5.28" PMx="0.27" fuel="5.19" electricity="0.00" noise="73.69" route="route01" type="Car" waiting="0.00" lane="e0_0" pos="51.89" speed="14.30" angle="90.00" x="51.89" y="-1.60"/>
    </timestep>
    <timestep time="17.00">
        <vehicle id="0" eclass="HBEFA3/PC_G_EU4" CO2="21239.89" CO="399.23" HC="2.35" NOx="9.23" PMx="0.53" fuel="9.13" electricity="0.00" noise="79.07" route="route01" type="Car01" waiting="0.00" lane="e0_0" pos="287.72" speed="30.71" angle="90.00" x="287.72" y="-1.60"/>
        <vehicle id="1" eclass="HBEFA3/PC_G_EU4" CO2="15932.81" CO="276.04" HC="1.66" NOx="6.77" PMx="0.39" fuel="6.85" electricity="0.00" noise="76.53" route="route01" type="Car" waiting="0.00" lane="e0_0" pos="244.75" speed="28.76" angle="90.00" x="244.75" y="-1.60"/>
        <vehicle id="2" eclass="HBEFA3/PC_G_EU4" CO2="25074.42" CO="471.21" HC="2.77" NOx="11.06" PMx="0.63" fuel="10.78" electricity="0.00" noise="80.80" route="route01" type="Car" waiting="0.00" lane="e0_0" pos="192.18" speed="29.79" angle="90.00" x="192.18" y="-1.60"/>
        <vehicle id="3" eclass="HBEFA3/PC_G_EU4" CO2="19745.88" CO="332.44" HC="2.00" NOx="8.69" PMx="0.47" fuel="8.49" electricity="0.00" noise="78.14" route="route01" type="Car" waiting="0.00" lane="e0_0" pos="122.10" speed="23.40" angle="90.00" x="122.10" y="-1.60"/>
        <vehicle id="4" eclass="HBEFA3/PC_G_EU4" CO2="14126.87" CO="222.20" HC="1.36" NOx="6.19" PMx="0.32" fuel="6.07" electricity="0.00" noise="74.96" route="route01" type="Car" waiting="0.00" lane="e0_0" pos="68.79" speed="16.90" angle="90.00" x="68.79" y="-1.60"/>
    </timestep>
    <timestep time="18.00">
        <vehicle id="0" eclass="HBEFA3/PC_G_EU4" CO2="25040.37" CO="496.36" HC="2.89" NOx="10.98" PMx="0.64" fuel="10.76" electricity="0.00" noise="80.89" route="route01" type="Car01" waiting="0.00" lane="e0_0" pos="320.56" speed="32.83" angle="90.00" x="320.56" y="-1.60"/>
        <vehicle id="1" eclass="HBEFA3/PC_G_EU4" CO2="20523.87" CO="383.53" HC="2.26" NOx="8.90" PMx="0.51" fuel="8.82" electricity="0.00" noise="78.75" route="route01" type="Car" waiting="0.00" lane="e0_0" pos="275.34" speed="30.59" angle="90.00" x="275.34" y="-1.60"/>
        <vehicle id="2" eclass="HBEFA3/PC_G_EU4" CO2="18440.45" CO="346.36" HC="2.04" NOx="7.90" PMx="0.46" fuel="7.93" electricity="0.00" noise="78.01" route="route01" type="Car" waiting="0.00" lane="e0_0" pos="223.47" speed="31.29" angle="90.00" x="223.47" y="-1.60"/>
        <vehicle id="3" eclass="HBEFA3/PC_G_EU4" CO2="22178.89" CO="390.24" HC="2.33" NOx="9.78" PMx="0.54" fuel="9.53" electricity="0.00" noise="79.40" route="route01" type="Car" waiting="0.00" lane="e0_0" pos="148.10" speed="26.00" angle="90.00" x="148.10" y="-1.60"/>
        <vehicle id="4" eclass="HBEFA3/PC_G_EU4" CO2="16294.51" CO="260.41" HC="1.59" NOx="7.15" PMx="0.37" fuel="7.00" electricity="0.00" noise="76.23" route="route01" type="Car" waiting="0.00" lane="e0_0" pos="88.29" speed="19.50" angle="90.00" x="88.29" y="-1.60"/>
    </timestep>
    <timestep time="19.00">
        <vehicle id="0" eclass="HBEFA3/PC_G_EU4" CO2="0.00" CO="0.00" HC="0.00" NOx="0.00" PMx="0.00" fuel="0.00" electricity="0.00" noise="74.78" route="route01" type="Car01" waiting="0.00" lane="e0_0" pos="353.17" speed="32.61" angle="90.00" x="353.17" y="-1.60"/>
        <vehicle id="1" eclass="HBEFA3/PC_G_EU4" CO2="13492.05" CO="245.98" HC="1.46" NOx="5.56" PMx="0.33" fuel="5.80" electricity="0.00" noise="76.34" route="route01" type="Car" waiting="0.00" lane="e0_0" pos="306.80" speed="31.46" angle="90.00" x="306.80" y="-1.60"/>
        <vehicle id="2" eclass="HBEFA3/PC_G_EU4" CO2="7040.80" CO="112.45" HC="0.69" NOx="2.52" PMx="0.16" fuel="3.03" electricity="0.00" noise="74.68" route="route01" type="Car" waiting="0.00" lane="e0_0" pos="254.84" speed="31.38" angle="90.00" x="254.84" y="-1.60"/>
        <vehicle id="3" eclass="HBEFA3/PC_G_EU4" CO2="24718.03" CO="455.87" HC="2.69" NOx="10.92" PMx="0.61" fuel="10.63" electricity="0.00" noise="80.65" route="route01" type="Car" waiting="0.00" lane="e0_0" pos="176.70" speed="28.60" angle="90.00" x="176.70" y="-1.60"/>
        <vehicle id="4" eclass="HBEFA3/PC_G_EU4" CO2="18568.28" CO="306.46" HC="1.85" NOx="8.16" PMx="0.44" fuel="7.98" electricity="0.00" noise="77.50" route="route01" type="Car" waiting="0.00" lane="e0_0" pos="110.39" speed="22.10" angle="90.00" x="110.39" y="-1.60"/>
    </timestep>
    <timestep time="20.00">
        <vehicle id="0" eclass="HBEFA3/PC_G_EU4" CO2="13991.08" CO="274.61" HC="1.61" NOx="5.76" PMx="0.36" fuel="6.01" electricity="0.00" noise="77.05" route="route01" type="Car01" waiting="0.00" lane="e0_0" pos="386.57" speed="33.41" angle="90.00" x="386.57" y="-1.60"/>
        <vehicle id="1" eclass="HBEFA3/PC_G_EU4" CO2="6312.69" CO="98.17" HC="0.61" NOx="2.17" PMx="0.15" fuel="2.71" electricity="0.00" noise="74.57" route="route01" type="Car" waiting="0.00" lane="e0_0" pos="338.26" speed="31.46" angle="90.00" x="338.26" y="-1.60"/>
        <vehicle id="2" eclass="HBEFA3/PC_G_EU4" CO2="6810.46" CO="108.23" HC="0.67" NOx="2.41" PMx="0.16" fuel="2.93" electricity="0.00" noise="74.66" route="route01" type="Car" waiting="0.00" lane="e0_0" pos="286.28" speed="31.44" angle="90.00" x="286.28" y="-1.60"/>
        <vehicle id="3" eclass="HBEFA3/PC_G_EU4" CO2="21702.99" CO="407.69" HC="2.40" NOx="9.46" PMx="0.54" fuel="9.33" electricity="0.00" noise="79.26" route="route01" type="Car" waiting="0.00" lane="e0_0" pos="207.27" speed="30.57" angle="90.00" x="207.27" y="-1.60"/>
        <vehicle id="4" eclass="HBEFA3/PC_G_EU4" CO2="20948.18" CO="360.34" HC="2.16" NOx="9.23" PMx="0.50" fuel="9.00" electricity="0.00" noise="78.77" route="route01" type="Car" waiting="0.00" lane="e0_0" pos="135.09" speed="24.70" angle="90.00" x="135.09" y="-1.60"/>
    </timestep>
    <timestep time="21.00">
        <vehicle id="0" eclass="HBEFA3/PC_G_EU4" CO2="0.00" CO="0.00" HC="0.00" NOx="0.00" PMx="0.00" fuel="0.00" electricity="0.00" noise="74.70" route="route01" type="Car01" waiting="0.00" lane="e0_0" pos="419.56" speed="32.99" angle="90.00" x="419.56" y="-1.60"/>
        <vehicle id="1" eclass="HBEFA3/PC_G_EU4" CO2="6312.69" CO="98.17" HC="0.61" NOx="2.17" PMx="0.15" fuel="2.71" electricity="0.00" noise="74.57" route="route01" type="Car" waiting="0.00" lane="e0_0" pos="369.72" speed="31.46" angle="90.00" x="369.72" y="-1.60"/>
        <vehicle id="2" eclass="HBEFA3/PC_G_EU4" CO2="6792.37" CO="108.35" HC="0.67" NOx="2.40" PMx="0.16" fuel="2.92" electricity="0.00" noise="74.68" route="route01" type="Car" waiting="0.00" lane="e0_0" pos="317.78" speed="31.50" angle="90.00" x="317.78" y="-1.60"/>
        <vehicle id="3" eclass="HBEFA3/PC_G_EU4" CO2="16209.49" CO="304.48" HC="1.80" NOx="6.84" PMx="0.41" fuel="6.97" electricity="0.00" noise="77.30" route="route01" type="Car" waiting="0.00" lane="e0_0" pos="239.03" speed="31.75" angle="90.00" x="239.03" y="-1.60"/>
        <vehicle id="4" eclass="HBEFA3/PC_G_EU4" CO2="23434.22" CO="422.05" HC="2.51" NOx="10.34" PMx="0.58" fuel="10.07" electricity="0.00" noise="80.03" route="route01" type="Car" waiting="0.00" lane="e0_0" pos="162.39" speed="27.30" angle="90.00" x="162.39" y="-1.60"/>
    </timestep>
    <timestep time="22.00">
        <vehicle id="0" eclass="HBEFA3/PC_G_EU4" CO2="0.00" CO="0.00" HC="0.00" NOx="0.00" PMx="0.00" fuel="0.00" electricity="0.00" noise="74.72" route="route01" type="Car01" waiting="0.00" lane="e0_0" pos="452.25" speed="32.69" angle="90.00" x="452.25" y="-1.60"/>
        <vehicle id="1" eclass="HBEFA3/PC_G_EU4" CO2="6312.69" CO="98.17" HC="0.61" NOx="2.17" PMx="0.15" fuel="2.71" electricity="0.00" noise="74.57" route="route01" type="Car" waiting="0.00" lane="e0_0" pos="401.19" speed="31.46" angle="90.00" x="401.19" y="-1.60"/>
        <vehicle id="2" eclass="HBEFA3/PC_G_EU4" CO2="6783.46" CO="108.63" HC="0.67" NOx="2.39" PMx="0.16" fuel="2.92" electricity="0.00" noise="74.70" route="route01" type="Car" waiting="0.00" lane="e0_0" pos="349.33" speed="31.55" angle="90.00" x="349.33" y="-1.60"/>
        <vehicle id="3" eclass="HBEFA3/PC_G_EU4" CO2="12690.58" CO="238.53" HC="1.41" NOx="5.16" PMx="0.32" fuel="5.46" electricity="0.00" noise="76.41" route="route01" type="Car" waiting="0.00" lane="e0_0" pos="271.49" speed="32.46" angle="90.00" x="271.49" y="-1.60"/>
        <vehicle id="4" eclass="HBEFA3/PC_G_EU4" CO2="25074.42" CO="471.21" HC="2.77" NOx="11.06" PMx="0.63" fuel="10.78" electricity="0.00" noise="80.80" route="route01" type="Car" waiting="0.00" lane="e0_0" pos="192.18" speed="29.79" angle="90.00" x="192.18" y="-1.60"/>
    </timestep>
    <timestep time="23.00">
        <vehicle id="0" eclass="HBEFA3/PC_G_EU4" CO2="0.00" CO="0.00" HC="0.00" NOx="0.00" PMx="0.00" fuel="0.00" electricity="0.00" noise="74.39" route="route01" type="Car01" waiting="0.00" lane="e0_0" pos="484.53" speed="32.28" angle="90.00" x="484.53" y="-1.60"/>
        <vehicle id="1" eclass="HBEFA3/PC_G_EU4" CO2="6312.69" CO="98.17" HC="0.61" NOx="2.17" PMx="0.15" fuel="2.71" electricity="0.00" noise="74.57" route="route01" type="Car" waiting="0.00" lane="e0_0" pos="432.65" speed="31.46" angle="90.00" x="432.65" y="-1.60"/>
        <vehicle id="2" eclass="HBEFA3/PC_G_EU4" CO2="6773.10" CO="108.85" HC="0.67" NOx="2.39" PMx="0.16" fuel="2.91" electricity="0.00" noise="74.72" route="route01" type="Car" waiting="0.00" lane="e0_0" pos="380.93" speed="31.60" angle="90.00" x="380.93" y="-1.60"/>
        <vehicle id="3" eclass="HBEFA3/PC_G_EU4" CO2="10499.01" CO="197.51" HC="1.17" NOx="4.12" PMx="0.26" fuel="4.51" electricity="0.00" noise="75.99" route="route01" type="Car" waiting="0.00" lane="e0_0" pos="304.38" speed="32.89" angle="90.00" x="304.38" y="-1.60"/>
        <vehicle id="4" eclass="HBEFA3/PC_G_EU4" CO2="18440.45" CO="346.36" HC="2.04" NOx="7.90" PMx="0.46" fuel="7.93" electricity="0.00" noise="78.01" route="route01" type="Car" waiting="0.00" lane="e0_0" pos="223.47" speed="31.29" angle="90.00" x="223.47" y="-1.60"/>
    </timestep>
    <timestep time="24.00">
        <vehicle id="0" eclass="HBEFA3/PC_G_EU4" CO2="17263.98" CO="342.41" HC="2.00" NOx="7.30" PMx="0.44" fuel="7.42" electricity="0.00" noise="78.05" route="route01" type="Car01" waiting="0.00" lane="e0_0" pos="517.98" speed="33.45" angle="90.00" x="517.98" y="-1.60"/>
        <vehicle id="1" eclass="HBEFA3/PC_G_EU4" CO2="6312.69" CO="98.17" HC="0.61" NOx="2.17" PMx="0.15" fuel="2.71" electricity="0.00" noise="74.57" route="route01" type="Car" waiting="0.00" lane="e0_0" pos="464.11" speed="31.46" angle="90.00" x="464.11" y="-1.60"/>
        <vehicle id="2" eclass="HBEFA3/PC_G_EU4" CO2="6760.87" CO="109.00" HC="0.67" NOx="2.38" PMx="0.16" fuel="2.91" electricity="0.00" noise="74.73" route="route01" type="Car" waiting="0.00" lane="e0_0" pos="412.58" speed="31.65" angle="90.00" x="412.58" y="-1.60"/>
        <vehicle id="3" eclass="HBEFA3/PC_G_EU4" CO2="9155.19" CO="172.38" HC="1.02" NOx="3.48" PMx="0.23" fuel="3.94" electricity="0.00" noise="75.77" route="route01" type="Car" waiting="0.00" lane="e0_0" pos="337.52" speed="33.14" angle="90.00" x="337.52" y="-1.60"/>
        <vehicle id="4" eclass="HBEFA3/PC_G_EU4" CO2="14104.06" CO="265.01" HC="1.57" NOx="5.84" PMx="0.35" fuel="6.06" electricity="0.00" noise="76.73" route="route01" type="Car" waiting="0.00" lane="e0_0" pos="255.65" speed="32.18" angle="90.00" x="255.65" y="-1.60"/>
    </timestep>
    <timestep time="25.00">
        <vehicle id="0" eclass="HBEFA3/PC_G_EU4" CO2="0.00" CO="0.00" HC="0.00" NOx="0.00" PMx="0.00" fuel="0.00" electricity="0.00" noise="74.09" route="route01" type="Car01" waiting="0.00" lane="e0_0" pos="550.57" speed="32.59" angle="90.00" x="550.57" y="-1.60"/>
        <vehicle id="1" eclass="HBEFA3/PC_G_EU4" CO2="6312.69" CO="98.17" HC="0.61" NOx="2.17" PMx="0.15" fuel="2.71" electricity="0.00" noise="74.57" route="route01" type="Car" waiting="0.00" lane="e0_0" pos="495.57" speed="31.46" angle="90.00" x="495.57" y="-1.60"/>