<?xml version="1.0" encoding="UTF-8"?>

<!-- generated on 01/16/23 21:28:40 by Eclipse SUMO GUI Version 1.8.0
<configuration xmlns:xsi="http://www.w3.org/2001/XMLSchema-instance" xsi:noNamespaceSchemaLocation="http://sumo.dlr.de/xsd/sumoConfiguration.xsd">

    <input>
        <net-file value="N:\Documents\Thesis_Masters\Dev\master_thesis\test\FIS\highway_1.net.xml"/>
        <route-files value="highway_1.rou.xml"/>
        <additional-files value="highway_1.add.xml"/>
    </input>

    <output>
        <fcd-output value="./results/spreadsheet/20230116_highway_1_tripInfo\000_fcdout.xml"/>
        <fcd-output.acceleration value="true"/>
    </output>

    <ssm_device>
        <device.ssm.probability value="1"/>
        <device.ssm.file value="./results/spreadsheet/20230116_highway_1_tripInfo\000_ssm.xml"/>
    </ssm_device>

    <traci_server>
        <remote-port value="60578"/>
    </traci_server>

</configuration>
-->

<fcd-export xmlns:xsi="http://www.w3.org/2001/XMLSchema-instance" xsi:noNamespaceSchemaLocation="http://sumo.dlr.de/xsd/fcd_file.xsd">
    <timestep time="0.00">
        <vehicle id="0" x="5.10" y="0.00" angle="90.00" type="Car01" speed="0.00" pos="5.10" lane="gneE0_0" slope="0.00" acceleration="0.00"/>
    </timestep>
    <timestep time="1.00">
        <vehicle id="0" x="6.85" y="0.00" angle="90.00" type="Car01" speed="1.75" pos="6.85" lane="gneE0_0" slope="0.00" acceleration="1.75"/>
    </timestep>
    <timestep time="2.00">
        <vehicle id="0" x="10.51" y="0.00" angle="90.00" type="Car01" speed="3.66" pos="10.51" lane="gneE0_0" slope="0.00" acceleration="1.91"/>
    </timestep>
    <timestep time="3.00">
        <vehicle id="0" x="16.25" y="0.00" angle="90.00" type="Car01" speed="5.75" pos="16.25" lane="gneE0_0" slope="0.00" acceleration="2.09"/>
        <vehicle id="1" x="5.10" y="0.00" angle="90.00" type="Car01" speed="0.00" pos="5.10" lane="gneE0_0" slope="0.00" acceleration="0.00"/>
    </timestep>
    <timestep time="4.00">
        <vehicle id="0" x="23.58" y="0.00" angle="90.00" type="Car01" speed="7.33" pos="23.58" lane="gneE0_0" slope="0.00" acceleration="1.58"/>
        <vehicle id="1" x="6.69" y="0.00" angle="90.00" type="Car01" speed="1.59" pos="6.69" lane="gneE0_0" slope="0.00" acceleration="1.59"/>
    </timestep>
    <timestep time="5.00">
        <vehicle id="0" x="33.00" y="0.00" angle="90.00" type="Car01" speed="9.42" pos="33.00" lane="gneE0_0" slope="0.00" acceleration="2.09"/>
        <vehicle id="1" x="10.03" y="0.00" angle="90.00" type="Car01" speed="3.33" pos="10.03" lane="gneE0_0" slope="0.00" acceleration="1.74"/>
    </timestep>
    <timestep time="6.00">
        <vehicle id="0" x="44.50" y="0.00" angle="90.00" type="Car01" speed="11.50" pos="44.50" lane="gneE0_0" slope="0.00" acceleration="2.09"/>
        <vehicle id="1" x="15.52" y="0.00" angle="90.00" type="Car01" speed="5.50" pos="15.52" lane="gneE0_0" slope="0.00" acceleration="2.16"/>
        <vehicle id="2" x="5.10" y="0.00" angle="90.00" type="Car01" speed="0.00" pos="5.10" lane="gneE0_0" slope="0.00" acceleration="0.00"/>
    </timestep>
    <timestep time="7.00">
        <vehicle id="0" x="57.98" y="0.00" angle="90.00" type="Car01" speed="13.47" pos="57.98" lane="gneE0_0" slope="0.00" acceleration="1.97"/>
        <vehicle id="1" x="22.94" y="0.00" angle="90.00" type="Car01" speed="7.42" pos="22.94" lane="gneE0_0" slope="0.00" acceleration="1.92"/>
        <vehicle id="2" x="7.08" y="0.00" angle="90.00" type="Car01" speed="1.98" pos="7.08" lane="gneE0_0" slope="0.00" acceleration="1.98"/>
    </timestep>
    <timestep time="8.00">
        <vehicle id="0" x="72.85" y="0.00" angle="90.00" type="Car01" speed="14.88" pos="72.85" lane="gneE0_0" slope="0.00" acceleration="1.41"/>
        <vehicle id="1" x="31.69" y="0.00" angle="90.00" type="Car01" speed="8.75" pos="31.69" lane="gneE0_0" slope="0.00" acceleration="1.33"/>
        <vehicle id="2" x="10.94" y="0.00" angle="90.00" type="Car01" speed="3.85" pos="10.94" lane="gneE0_0" slope="0.00" acceleration="1.87"/>
    </timestep>
    <timestep time="9.00">
        <vehicle id="0" x="89.06" y="0.00" angle="90.00" type="Car01" speed="16.20" pos="89.06" lane="gneE0_0" slope="0.00" acceleration="1.33"/>
        <vehicle id="1" x="42.34" y="0.00" angle="90.00" type="Car01" speed="10.65" pos="42.34" lane="gneE0_0" slope="0.00" acceleration="1.90"/>
        <vehicle id="2" x="16.92" y="0.00" angle="90.00" type="Car01" speed="5.98" pos="16.92" lane="gneE0_0" slope="0.00" acceleration="2.13"/>
        <vehicle id="3" x="5.10" y="0.00" angle="90.00" type="Car01" speed="0.00" pos="5.10" lane="gneE0_0" slope="0.00" acceleration="0.00"/>
    </timestep>
    <timestep time="10.00">
        <vehicle id="0" x="106.94" y="0.00" angle="90.00" type="Car01" speed="17.89" pos="106.94" lane="gneE0_0" slope="0.00" acceleration="1.68"/>
        <vehicle id="1" x="55.47" y="0.00" angle="90.00" type="Car01" speed="13.13" pos="55.47" lane="gneE0_0" slope="0.00" acceleration="2.48"/>
        <vehicle id="2" x="24.96" y="0.00" angle="90.00" type="Car01" speed="8.04" pos="24.96" lane="gneE0_0" slope="0.00" acceleration="2.06"/>
        <vehicle id="3" x="6.86" y="0.00" angle="90.00" type="Car01" speed="1.76" pos="6.86" lane="gneE0_0" slope="0.00" acceleration="1.76"/>
    </timestep>
    <timestep time="11.00">
        <vehicle id="0" x="126.18" y="0.00" angle="90.00" type="Car01" speed="19.24" pos="126.18" lane="gneE0_0" slope="0.00" acceleration="1.35"/>
        <vehicle id="1" x="71.12" y="0.00" angle="90.00" type="Car01" speed="15.65" pos="71.12" lane="gneE0_0" slope="0.00" acceleration="2.52"/>
        <vehicle id="2" x="34.66" y="0.00" angle="90.00" type="Car01" speed="9.70" pos="34.66" lane="gneE0_0" slope="0.00" acceleration="1.66"/>
        <vehicle id="3" x="11.22" y="0.00" angle="90.00" type="Car01" speed="4.36" pos="11.22" lane="gneE0_0" slope="0.00" acceleration="2.60"/>
    </timestep>
    <timestep time="12.00">
        <vehicle id="0" x="147.45" y="0.00" angle="90.00" type="Car01" speed="21.27" pos="147.45" lane="gneE0_0" slope="0.00" acceleration="2.03"/>
        <vehicle id="1" x="89.30" y="0.00" angle="90.00" type="Car01" speed="18.18" pos="89.30" lane="gneE0_0" slope="0.00" acceleration="2.54"/>
        <vehicle id="2" x="46.56" y="0.00" angle="90.00" type="Car01" speed="11.90" pos="46.56" lane="gneE0_0" slope="0.00" acceleration="2.20"/>
        <vehicle id="3" x="17.17" y="0.00" angle="90.00" type="Car01" speed="5.95" pos="17.17" lane="gneE0_0" slope="0.00" acceleration="1.60"/>
        <vehicle id="4" x="5.10" y="0.00" angle="90.00" type="Car01" speed="0.00" pos="5.10" lane="gneE0_0" slope="0.00" acceleration="0.00"/>
    </timestep>
    <timestep time="13.00">
        <vehicle id="0" x="170.97" y="0.00" angle="90.00" type="Car01" speed="23.51" pos="170.97" lane="gneE0_0" slope="0.00" acceleration="2.24"/>
        <vehicle id="1" x="108.86" y="0.00" angle="90.00" type="Car01" speed="19.55" pos="108.86" lane="gneE0_0" slope="0.00" acceleration="1.37"/>
        <vehicle id="2" x="60.87" y="0.00" angle="90.00" type="Car01" speed="14.31" pos="60.87" lane="gneE0_0" slope="0.00" acceleration="2.41"/>
        <vehicle id="3" x="24.97" y="0.00" angle="90.00" type="Car01" speed="7.80" pos="24.97" lane="gneE0_0" slope="0.00" acceleration="1.84"/>
        <vehicle id="4" x="7.61" y="0.00" angle="90.00" type="Car01" speed="2.51" pos="7.61" lane="gneE0_0" slope="0.00" acceleration="2.51"/>
    </timestep>
    <timestep time="14.00">
        <vehicle id="0" x="196.20" y="0.00" angle="90.00" type="Car01" speed="25.23" pos="196.20" lane="gneE0_0" slope="0.00" acceleration="1.72"/>
        <vehicle id="1" x="130.94" y="0.00" angle="90.00" type="Car01" speed="22.08" pos="130.94" lane="gneE0_0" slope="0.00" acceleration="2.53"/>
        <vehicle id="2" x="77.03" y="0.00" angle="90.00" type="Car01" speed="16.16" pos="77.03" lane="gneE0_0" slope="0.00" acceleration="1.85"/>
        <vehicle id="3" x="34.88" y="0.00" angle="90.00" type="Car01" speed="9.91" pos="34.88" lane="gneE0_0" slope="0.00" acceleration="2.11"/>
        <vehicle id="4" x="11.45" y="0.00" angle="90.00" type="Car01" speed="3.83" pos="11.45" lane="gneE0_0" slope="0.00" acceleration="1.32"/>
    </timestep>
    <timestep time="15.00">
        <vehicle id="0" x="223.60" y="0.00" angle="90.00" type="Car01" speed="27.40" pos="223.60" lane="gneE0_0" slope="0.00" acceleration="2.17"/>
        <vehicle id="1" x="155.30" y="0.00" angle="90.00" type="Car01" speed="24.35" pos="155.30" lane="gneE0_0" slope="0.00" acceleration="2.27"/>
        <vehicle id="2" x="95.42" y="0.00" angle="90.00" type="Car01" speed="18.38" pos="95.42" lane="gneE0_0" slope="0.00" acceleration="2.22"/>
        <vehicle id="3" x="46.80" y="0.00" angle="90.00" type="Car01" speed="11.92" pos="46.80" lane="gneE0_0" slope="0.00" acceleration="2.02"/>
        <vehicle id="4" x="17.47" y="0.00" angle="90.00" type="Car01" speed="6.02" pos="17.47" lane="gneE0_0" slope="0.00" acceleration="2.19"/>
    </timestep>
    <timestep time="16.00">
        <vehicle id="0" x="253.18" y="0.00" angle="90.00" type="Car01" speed="29.58" pos="253.18" lane="gneE0_0" slope="0.00" acceleration="2.18"/>
        <vehicle id="1" x="181.77" y="0.00" angle="90.00" type="Car01" speed="26.48" pos="181.77" lane="gneE0_0" slope="0.00" acceleration="2.12"/>
        <vehicle id="2" x="115.24" y="0.00" angle="90.00" type="Car01" speed="19.82" pos="115.24" lane="gneE0_0" slope="0.00" acceleration="1.43"/>
        <vehicle id="3" x="60.37" y="0.00" angle="90.00" type="Car01" speed="13.57" pos="60.37" lane="gneE0_0" slope="0.00" acceleration="1.64"/>
        <vehicle id="4" x="25.25" y="0.00" angle="90.00" type="Car01" speed="7.78" pos="25.25" lane="gneE0_0" slope="0.00" acceleration="1.76"/>
    </timestep>
    <timestep time="17.00">
        <vehicle id="0" x="283.63" y="0.00" angle="90.00" type="Car01" speed="30.45" pos="283.63" lane="gneE0_0" slope="0.00" acceleration="0.87"/>
        <vehicle id="1" x="210.74" y="0.00" angle="90.00" type="Car01" speed="28.96" pos="210.74" lane="gneE0_0" slope="0.00" acceleration="2.49"/>
        <vehicle id="2" x="136.45" y="0.00" angle="90.00" type="Car01" speed="21.22" pos="136.45" lane="gneE0_0" slope="0.00" acceleration="1.40"/>
        <vehicle id="3" x="76.50" y="0.00" angle="90.00" type="Car01" speed="16.13" pos="76.50" lane="gneE0_0" slope="0.00" acceleration="2.57"/>
        <vehicle id="4" x="34.70" y="0.00" angle="90.00" type="Car01" speed="9.46" pos="34.70" lane="gneE0_0" slope="0.00" acceleration="1.67"/>
    </timestep>
    <timestep time="18.00">
        <vehicle id="0" x="314.44" y="0.00" angle="90.00" type="Car01" speed="30.81" pos="314.44" lane="gneE0_0" slope="0.00" acceleration="0.36"/>
        <vehicle id="1" x="240.82" y="0.00" angle="90.00" type="Car01" speed="30.09" pos="240.82" lane="gneE0_0" slope="0.00" acceleration="1.12"/>
        <vehicle id="2" x="160.15" y="0.00" angle="90.00" type="Car01" speed="23.69" pos="160.15" lane="gneE0_0" slope="0.00" acceleration="2.48"/>
        <vehicle id="3" x="95.04" y="0.00" angle="90.00" type="Car01" speed="18.54" pos="95.04" lane="gneE0_0" slope="0.00" acceleration="2.41"/>
        <vehicle id="4" x="45.77" y="0.00" angle="90.00" type="Car01" speed="11.06" pos="45.77" lane="gneE0_0" slope="0.00" acceleration="1.61"/>
    </timestep>
    <timestep time="19.00">
        <vehicle id="0" x="344.61" y="0.00" angle="90.00" type="Car01" speed="30.17" pos="344.61" lane="gneE0_0" slope="0.00" acceleration="-0.64"/>
        <vehicle id="1" x="271.09" y="0.00" angle="90.00" type="Car01" speed="30.27" pos="271.09" lane="gneE0_0" slope="0.00" acceleration="0.18"/>
        <vehicle id="2" x="185.55" y="0.00" angle="90.00" type="Car01" speed="25.40" pos="185.55" lane="gneE0_0" slope="0.00" acceleration="1.71"/>
        <vehicle id="3" x="115.09" y="0.00" angle="90.00" type="Car01" speed="20.04" pos="115.09" lane="gneE0_0" slope="0.00" acceleration="1.50"/>
        <vehicle id="4" x="59.31" y="0.00" angle="90.00" type="Car01" speed="13.55" pos="59.31" lane="gneE0_0" slope="0.00" acceleration="2.48"/>
    </timestep>
    <timestep time="20.00">
        <vehicle id="0" x="375.17" y="0.00" angle="90.00" type="Car01" speed="30.56" pos="375.17" lane="gneE0_0" slope="0.00" acceleration="0.39"/>
        <vehicle id="1" x="301.32" y="0.00" angle="90.00" type="Car01" speed="30.23" pos="301.32" lane="gneE0_0" slope="0.00" acceleration="-0.04"/>
        <vehicle id="2" x="212.91" y="0.00" angle="90.00" type="Car01" speed="27.36" pos="212.91" lane="gneE0_0" slope="0.00" acceleration="1.96"/>
        <vehicle id="3" x="136.62" y="0.00" angle="90.00" type="Car01" speed="21.54" pos="136.62" lane="gneE0_0" slope="0.00" acceleration="1.49"/>
        <vehicle id="4" x="74.60" y="0.00" angle="90.00" type="Car01" speed="15.29" pos="74.60" lane="gneE0_0" slope="0.00" acceleration="1.74"/>
    </timestep>
    <timestep time="21.00">
        <vehicle id="0" x="405.31" y="0.00" angle="90.00" type="Car01" speed="30.14" pos="405.31" lane="gneE0_0" slope="0.00" acceleration="-0.42"/>
        <vehicle id="1" x="331.32" y="0.00" angle="90.00" type="Car01" speed="30.00" pos="331.32" lane="gneE0_0" slope="0.00" acceleration="-0.22"/>
        <vehicle id="2" x="242.40" y="0.00" angle="90.00" type="Car01" speed="29.48" pos="242.40" lane="gneE0_0" slope="0.00" acceleration="2.12"/>
        <vehicle id="3" x="160.10" y="0.00" angle="90.00" type="Car01" speed="23.48" pos="160.10" lane="gneE0_0" slope="0.00" acceleration="1.95"/>
        <vehicle id="4" x="92.37" y="0.00" angle="90.00" type="Car01" speed="17.77" pos="92.37" lane="gneE0_0" slope="0.00" acceleration="2.49"/>
    </timestep>
    <timestep time="22.00">
        <vehicle id="0" x="436.15" y="0.00" angle="90.00" type="Car01" speed="30.84" pos="436.15" lane="gneE0_0" slope="0.00" acceleration="0.70"/>
        <vehicle id="1" x="361.73" y="0.00" angle="90.00" type="Car01" speed="30.41" pos="361.73" lane="gneE0_0" slope="0.00" acceleration="0.40"/>
        <vehicle id="2" x="273.09" y="0.00" angle="90.00" type="Car01" speed="30.69" pos="273.09" lane="gneE0_0" slope="0.00" acceleration="1.21"/>
        <vehicle id="3" x="185.60" y="0.00" angle="90.00" type="Car01" speed="25.50" pos="185.60" lane="gneE0_0" slope="0.00" acceleration="2.01"/>
        <vehicle id="4" x="111.64" y="0.00" angle="90.00" type="Car01" speed="19.27" pos="111.64" lane="gneE0_0" slope="0.00" acceleration="1.49"/>
    </timestep>
    <timestep time="23.00">
        <vehicle id="0" x="467.21" y="0.00" angle="90.00" type="Car01" speed="31.06" pos="467.21" lane="gneE0_0" slope="0.00" acceleration="0.21"/>
        <vehicle id="1" x="392.28" y="0.00" angle="90.00" type="Car01" speed="30.55" pos="392.28" lane="gneE0_0" slope="0.00" acceleration="0.14"/>
        <vehicle id="2" x="303.50" y="0.00" angle="90.00" type="Car01" speed="30.41" pos="303.50" lane="gneE0_0" slope="0.00" acceleration="-0.28"/>
        <vehicle id="3" x="213.39" y="0.00" angle="90.00" type="Car01" speed="27.78" pos="213.39" lane="gneE0_0" slope="0.00" acceleration="2.29"/>
        <vehicle id="4" x="133.25" y="0.00" angle="90.00" type="Car01" speed="21.62" pos="133.25" lane="gneE0_0" slope="0.00" acceleration="2.35"/>
    </timestep>
    <timestep time="24.00">
        <vehicle id="0" x="497.64" y="0.00" angle="90.00" type="Car01" speed="30.43" pos="497.64" lane="gneE0_0" slope="0.00" acceleration="-0.63"/>
        <vehicle id="1" x="422.56" y="0.00" angle="90.00" type="Car01" speed="30.28" pos="422.56" lane="gneE0_0" slope="0.00" acceleration="-0.27"/>
        <vehicle id="2" x="333.62" y="0.00" angle="90.00" type="Car01" speed="30.13" pos="333.62" lane="gneE0_0" slope="0.00" acceleration="-0.28"/>
        <vehicle id="3" x="242.64" y="0.00" angle="90.00" type="Car01" speed="29.25" pos="242.64" lane="gneE0_0" slope="0.00" acceleration="1.47"/>
        <vehicle id="4" x="156.78" y="0.00" angle="90.00" type="Car01" speed="23.52" pos="156.78" lane="gneE0_0" slope="0.00" acceleration="1.91"/>
    </timestep>
    <timestep time="25.00">
        <vehicle id="0" x="527.70" y="0.00" angle="90.00" type="Car01" speed="30.07" pos="527.70" lane="gneE0_0" slope="0.00" acceleration="-0.36"/>
        <vehicle id="1" x="452.59" y="0.00" angle="90.00" type="Car01" speed="30.03" pos="452.59" lane="gneE0_0" slope="0.00" acceleration="-0.25"/>
        <vehicle id="2" x="363.73" y="0.00" angle="90.00" type="Car01" speed="30.11" pos="363.73" lane="gneE0_0" slope="0.00" acceleration="-0.02"/>
        <vehicle id="3" x="272.82" y="0.00" angle="90.00" type="Car01" speed="30.18" pos="272.82" lane="gneE0_0" slope="0.00" acceleration="0.93"/>
        <vehicle id="4" x="182.49" y="0.00" angle="90.00" type="Car01" speed="25.71" pos="182.49" lane="gneE0_0" slope="0.00" acceleration="2.19"/>
    </timestep>
    <timestep time="26.00">
        <vehicle id="0" x="557.94" y="0.00" angle="90.00" type="Car01" speed="30.23" pos="557.94" lane="gneE0_0" slope="0.00" acceleration="0.17"/>
        <vehicle id="1" x="483.38" y="0.00" angle="90.00" type="Car01" speed="30.79" pos="483.38" lane="gneE0_0" slope="0.00" acceleration="0.76"/>
        <vehicle id="2" x="394.35" y="0.00" angle="90.00" type="Car01" speed="30.62" pos="394.35" lane="gneE0_0" slope="0.00" acceleration="0.51"/>
        <vehicle id="3" x="302.83" y="0.00" angle="90.00" type="Car01" speed="30.02" pos="302.83" lane="gneE0_0" slope="0.00" acceleration="-0.16"/>
        <vehicle id="4" x="210.72" y="0.00" angle="90.00" type="Car01" speed="28.23" pos="210.72" lane="gneE0_0" slope="0.00" acceleration="2.52"/>
    </timestep>
    <timestep time="27.00">
        <vehicle id="0" x="588.23" y="0.00" angle="90.00" type="Car01" speed="30.29" pos="588.23" lane="gneE0_0" slope="0.00" acceleration="0.06"/>
        <vehicle id="1" x="513.81" y="0.00" angle="90.00" type="Car01" speed="30.43" pos="513.81" lane="gneE0_0" slope="0.00" acceleration="-0.36"/>
        <vehicle id="2" x="424.87" y="0.00" angle="90.00" type="Car01" speed="30.52" pos="424.87" lane="gneE0_0" slope="0.00" acceleration="-0.10"/>
        <vehicle id="3" x="333.04" y="0.00" angle="90.00" type="Car01" speed="30.20" pos="333.04" lane="gneE0_0" slope="0.00" acceleration="0.18"/>
        <vehicle id="4" x="241.43" y="0.00" angle="90.00" type="Car01" speed="30.72" pos="241.43" lane="gneE0_0" slope="0.00" acceleration="2.49"/>
    </timestep>
    <timestep time="28.00">
        <vehicle id="0" x="619.18" y="0.00" angle="90.00" type="Car01" speed="30.95" pos="619.18" lane="gneE0_0" slope="0.00" acceleration="0.65"/>
        <vehicle id="1" x="545.00" y="0.00" angle="90.00" type="Car01" speed="31.19" pos="545.00" lane="gneE0_0" slope="0.00" acceleration="0.76"/>
        <vehicle id="2" x="455.75" y="0.00" angle="90.00" type="Car01" speed="30.88" pos="455.75" lane="gneE0_0" slope="0.00" acceleration="0.36"/>
        <vehicle id="3" x="363.90" y="0.00" angle="90.00" type="Car01" speed="30.87" pos="363.90" lane="gneE0_0" slope="0.00" acceleration="0.67"/>
        <vehicle id="4" x="272.58" y="0.00" angle="90.00" type="Car01" speed="31.15" pos="272.58" lane="gneE0_0" slope="0.00" acceleration="0.43"/>
    </timestep>
    <timestep time="29.00">
        <vehicle id="0" x="650.28" y="0.00" angle="90.00" type="Car01" speed="31.11" pos="650.28" lane="gneE0_0" slope="0.00" acceleration="0.16"/>
        <vehicle id="1" x="576.14" y="0.00" angle="90.00" type="Car01" speed="31.14" pos="576.14" lane="gneE0_0" slope="0.00" acceleration="-0.05"/>
        <vehicle id="2" x="486.08" y="0.00" angle="90.00" type="Car01" speed="30.33" pos="486.08" lane="gneE0_0" slope="0.00" acceleration="-0.54"/>
        <vehicle id="3" x="394.26" y="0.00" angle="90.00" type="Car01" speed="30.36" pos="394.26" lane="gneE0_0" slope="0.00" acceleration="-0.51"/>
        <vehicle id="4" x="303.63" y="0.00" angle="90.00" type="Car01" speed="31.06" pos="303.63" lane="gneE0_0" slope="0.00" acceleration="-0.09"/>
    </timestep>
    <timestep time="30.00">
        <vehicle id="0" x="680.63" y="0.00" angle="90.00" type="Car01" speed="30.35" pos="680.63" lane="gneE0_0" slope="0.00" acceleration="-0.76"/>
        <vehicle id="1" x="607.35" y="0.00" angle="90.00" type="Car01" speed="31.21" pos="607.35" lane="gneE0_0" slope="0.00" acceleration="0.07"/>
        <vehicle id="2" x="516.67" y="0.00" angle="90.00" type="Car01" speed="30.60" pos="516.67" lane="gneE0_0" slope="0.00" acceleration="0.26"/>
        <vehicle id="3" x="425.40" y="0.00" angle="90.00" type="Car01" speed="31.14" pos="425.40" lane="gneE0_0" slope="0.00" acceleration="0.78"/>
        <vehicle id="4" x="333.96" y="0.00" angle="90.00" type="Car01" speed="30.33" pos="333.96" lane="gneE0_0" slope="0.00" acceleration="-0.73"/>
    </timestep>
    <timestep time="31.00">
        <vehicle id="0" x="711.92" y="0.00" angle="90.00" type="Car01" speed="31.29" pos="711.92" lane="gneE0_0" slope="0.00" acceleration="0.94"/>
        <vehicle id="1" x="637.77" y="0.00" angle="90.00" type="Car01" speed="30.42" pos="637.77" lane="gneE0_0" slope="0.00" acceleration="-0.79"/>
        <vehicle id="2" x="547.55" y="0.00" angle="90.00" type="Car01" speed="30.88" pos="547.55" lane="gneE0_0" slope="0.00" acceleration="0.28"/>
        <vehicle id="3" x="456.05" y="0.00" angle="90.00" type="Car01" speed="30.65" pos="456.05" lane="gneE0_0" slope="0.00" acceleration="-0.49"/>
        <vehicle id="4" x="364.33" y="0.00" angle="90.00" type="Car01" speed="30.37" pos="364.33" lane="gneE0_0" slope="0.00" acceleration="0.04"/>
    </timestep>
    <timestep time="32.00">
        <vehicle id="0" x="742.86" y="0.00" angle="90.00" type="Car01" speed="30.94" pos="742.86" lane="gneE0_0" slope="0.00" acceleration="-0.34"/>
        <vehicle id="1" x="668.64" y="0.00" angle="90.00" type="Car01" speed="30.88" pos="668.64" lane="gneE0_0" slope="0.00" acceleration="0.46"/>
        <vehicle id="2" x="577.66" y="0.00" angle="90.00" type="Car01" speed="30.11" pos="577.66" lane="gneE0_0" slope="0.00" acceleration="-0.77"/>
        <vehicle id="3" x="486.60" y="0.00" angle="90.00" type="Car01" speed="30.55" pos="486.60" lane="gneE0_0" slope="0.00" acceleration="-0.10"/>
        <vehicle id="4" x="395.43" y="0.00" angle="90.00" type="Car01" speed="31.10" pos="395.43" lane="gneE0_0" slope="0.00" acceleration="0.74"/>
    </timestep>
    <timestep time="33.00">
        <vehicle id="0" x="773.85" y="0.00" angle="90.00" type="Car01" speed="30.99" pos="773.85" lane="gneE0_0" slope="0.00" acceleration="0.05"/>
        <vehicle id="1" x="698.69" y="0.00" angle="90.00" type="Car01" speed="30.05" pos="698.69" lane="gneE0_0" slope="0.00" acceleration="-0.83"/>
        <vehicle id="2" x="607.88" y="0.00" angle="90.00" type="Car01" speed="30.22" pos="607.88" lane="gneE0_0" slope="0.00" acceleration="0.11"/>
        <vehicle id="3" x="517.20" y="0.00" angle="90.00" type="Car01" speed="30.60" pos="517.20" lane="gneE0_0" slope="0.00" acceleration="0.05"/>
        <vehicle id="4" x="426.66" y="0.00" angle="90.00" type="Car01" speed="31.22" pos="426.66" lane="gneE0_0" slope="0.00" acceleration="0.12"/>
    </timestep>
    <timestep time="34.00">
        <vehicle id="0" x="805.03" y="0.00" angle="90.00" type="Car01" speed="31.18" pos="805.03" lane="gneE0_0" slope="0.00" acceleration="0.19"/>
        <vehicle id="1" x="729.04" y="0.00" angle="90.00" type="Car01" speed="30.35" pos="729.04" lane="gneE0_0" slope="0.00" acceleration="0.31"/>
        <vehicle id="2" x="638.30" y="0.00" angle="90.00" type="Car01" speed="30.42" pos="638.30" lane="gneE0_0" slope="0.00" acceleration="0.20"/>
        <vehicle id="3" x="548.47" y="0.00" angle="90.00" type="Car01" speed="31.27" pos="548.47" lane="gneE0_0" slope="0.00" acceleration="0.68"/>
        <vehicle id="4" x="457.28" y="0.00" angle="90.00" type="Car01" speed="30.63" pos="457.28" lane="gneE0_0" slope="0.00" acceleration="-0.60"/>
    </timestep>
    <timestep time="35.00">
        <vehicle id="0" x="835.65" y="0.00" angle="90.00" type="Car01" speed="30.63" pos="835.65" lane="gneE0_0" slope="0.00" acceleration="-0.55"/>
        <vehicle id="1" x="759.86" y="0.00" angle="90.00" type="Car01" speed="30.81" pos="759.86" lane="gneE0_0" slope="0.00" acceleration="0.46"/>
        <vehicle id="2" x="669.57" y="0.00" angle="90.00" type="Car01" speed="31.27" pos="669.57" lane="gneE0_0" slope="0.00" acceleration="0.85"/>
        <vehicle id="3" x="579.63" y="0.00" angle="90.00" type="Car01" speed="31.16" pos="579.63" lane="gneE0_0" slope="0.00" acceleration="-0.12"/>
        <vehicle id="4" x="488.36" y="0.00" angle="90.00" type="Car01" speed="31.07" pos="488.36" lane="gneE0_0" slope="0.00" acceleration="0.45"/>
    </timestep>
    <timestep time="36.00">
        <vehicle id="0" x="866.73" y="0.00" angle="90.00" type="Car01" speed="31.08" pos="866.73" lane="gneE0_0" slope="0.00" acceleration="0.45"/>
        <vehicle id="1" x="790.02" y="0.00" angle="90.00" type="Car01" speed="30.16" pos="790.02" lane="gneE0_0" slope="0.00" acceleration="-0.65"/>
        <vehicle id="2" x="700.61" y="0.00" angle="90.00" type="Car01" speed="31.04" pos="700.61" lane="gneE0_0" slope="0.00" acceleration="-0.22"/>
        <vehicle id="3" x="610.77" y="0.00" angle="90.00" type="Car01" speed="31.14" pos="610.77" lane="gneE0_0" slope="0.00" acceleration="-0.02"/>
        <vehicle id="4" x="519.56" y="0.00" angle="90.00" type="Car01" speed="31.21" pos="519.56" lane="gneE0_0" slope="0.00" acceleration="0.14"/>
    </timestep>
    <timestep time="37.00">
        <vehicle id="0" x="897.91" y="0.00" angle="90.00" type="Car01" speed="31.18" pos="897.91" lane="gneE0_0" slope="0.00" acceleration="0.10"/>
        <vehicle id="1" x="820.71" y="0.00" angle="90.00" type="Car01" speed="30.69" pos="820.71" lane="gneE0_0" slope="0.00" acceleration="0.53"/>
        <vehicle id="2" x="731.87" y="0.00" angle="90.00" type="Car01" speed="31.26" pos="731.87" lane="gneE0_0" slope="0.00" acceleration="0.22"/>
        <vehicle id="3" x="641.59" y="0.00" angle="90.00" type="Car01" speed="30.82" pos="641.59" lane="gneE0_0" slope="0.00" acceleration="-0.32"/>
        <vehicle id="4" x="550.02" y="0.00" angle="90.00" type="Car01" speed="30.46" pos="550.02" lane="gneE0_0" slope="0.00" acceleration="-0.75"/>
    </timestep>
    <timestep time="38.00">
        <vehicle id="0" x="928.43" y="0.00" angle="90.00" type="Car01" speed="30.52" pos="928.43" lane="gneE0_0" slope="0.00" acceleration="-0.66"/>
        <vehicle id="1" x="851.49" y="0.00" angle="90.00" type="Car01" speed="30.78" pos="851.49" lane="gneE0_0" slope="0.00" acceleration="0.09"/>
        <vehicle id="2" x="762.24" y="0.00" angle="90.00" type="Car01" speed="30.36" pos="762.24" lane="gneE0_0" slope="0.00" acceleration="-0.90"/>
        <vehicle id="3" x="672.51" y="0.00" angle="90.00" type="Car01" speed="30.92" pos="672.51" lane="gneE0_0" slope="0.00" acceleration="0.10"/>
        <vehicle id="4" x="580.86" y="0.00" angle="90.00" type="Car01" speed="30.84" pos="580.86" lane="gneE0_0" slope="0.00" acceleration="0.38"/>
    </timestep>
    <timestep time="39.00">
        <vehicle id="0" x="958.77" y="0.00" angle="90.00" type="Car01" speed="30.34" pos="958.77" lane="gneE0_0" slope="0.00" acceleration="-0.17"/>
        <vehicle id="1" x="881.76" y="0.00" angle="90.00" type="Car01" speed="30.27" pos="881.76" lane="gneE0_0" slope="0.00" acceleration="-0.51"/>
        <vehicle id="2" x="793.43" y="0.00" angle="90.00" type="Car01" speed="31.19" pos="793.43" lane="gneE0_0" slope="0.00" acceleration="0.82"/>
        <vehicle id="3" x="703.51" y="0.00" angle="90.00" type="Car01" speed="31.00" pos="703.51" lane="gneE0_0" slope="0.00" acceleration="0.08"/>
        <vehicle id="4" x="611.85" y="0.00" angle="90.00" type="Car01" speed="30.99" pos="611.85" lane="gneE0_0" slope="0.00" acceleration="0.16"/>
    </timestep>
    <timestep time="40.00">
        <vehicle id="0" x="988.85" y="0.00" angle="90.00" type="Car01" speed="30.08" pos="988.85" lane="gneE0_0" slope="0.00" acceleration="-0.27"/>
        <vehicle id="1" x="912.71" y="0.00" angle="90.00" type="Car01" speed="30.95" pos="912.71" lane="gneE0_0" slope="0.00" acceleration="0.68"/>
        <vehicle id="2" x="824.50" y="0.00" angle="90.00" type="Car01" speed="31.07" pos="824.50" lane="gneE0_0" slope="0.00" acceleration="-0.12"/>
        <vehicle id="3" x="733.97" y="0.00" angle="90.00" type="Car01" speed="30.46" pos="733.97" lane="gneE0_0" slope="0.00" acceleration="-0.54"/>
        <vehicle id="4" x="642.89" y="0.00" angle="90.00" type="Car01" speed="31.04" pos="642.89" lane="gneE0_0" slope="0.00" acceleration="0.04"/>
    </timestep>
    <timestep time="41.00">
        <vehicle id="0" x="1019.25" y="0.00" angle="90.00" type="Car01" speed="30.40" pos="1019.25" lane="gneE0_0" slope="0.00" acceleration="0.32"/>
        <vehicle id="1" x="943.15" y="0.00" angle="90.00" type="Car01" speed="30.44" pos="943.15" lane="gneE0_0" slope="0.00" acceleration="-0.51"/>
        <vehicle id="2" x="855.51" y="0.00" angle="90.00" type="Car01" speed="31.01" pos="855.51" lane="gneE0_0" slope="0.00" acceleration="-0.06"/>
        <vehicle id="3" x="764.88" y="0.00" angle="90.00" type="Car01" speed="30.91" pos="764.88" lane="gneE0_0" slope="0.00" acceleration="0.45"/>
        <vehicle id="4" x="673.98" y="0.00" angle="90.00" type="Car01" speed="31.10" pos="673.98" lane="gneE0_0" slope="0.00" acceleration="0.06"/>
    </timestep>
    <timestep time="42.00">
        <vehicle id="0" x="1049.39" y="0.00" angle="90.00" type="Car01" speed="30.14" pos="1049.39" lane="gneE0_0" slope="0.00" acceleration="-0.26"/>
        <vehicle id="1" x="973.67" y="0.00" angle="90.00" type="Car01" speed="30.52" pos="973.67" lane="gneE0_0" slope="0.00" acceleration="0.09"/>
        <vehicle id="2" x="886.44" y="0.00" angle="90.00" type="Car01" speed="30.93" pos="886.44" lane="gneE0_0" slope="0.00" acceleration="-0.08"/>