<?xml version="1.0" encoding="UTF-8"?>

<!-- generated on 09/23/22 19:36:00 by Eclipse SUMO GUI Version 1.8.0
<configuration xmlns:xsi="http://www.w3.org/2001/XMLSchema-instance" xsi:noNamespaceSchemaLocation="http://sumo.dlr.de/xsd/sumoConfiguration.xsd">

    <input>
        <net-file value="cacc_platooning_a0.net.xml"/>
        <route-files value="20220923_tripInfo\000.rou.xml"/>
        <additional-files value="20220923_tripInfo\000.add.xml"/>
    </input>

    <output>
        <emission-output value="20220923_tripInfo\000_emissions.xml"/>
        <tripinfo-output value="20220923_tripInfo\000_tripinfo.xml"/>
    </output>

    <time>
        <begin value="0"/>
        <end value="10000"/>
    </time>

    <processing>
        <collision.mingap-factor value="0"/>
        <time-to-teleport value="-1"/>
    </processing>

    <traci_server>
        <remote-port value="65507"/>
    </traci_server>

</configuration>
-->

<emission-export xmlns:xsi="http://www.w3.org/2001/XMLSchema-instance" xsi:noNamespaceSchemaLocation="http://sumo.dlr.de/xsd/emission_file.xsd">
    <timestep time="0.00">
        <vehicle id="0" eclass="HBEFA3/PC_G_EU4" CO2="2624.72" CO="164.78" HC="0.81" NOx="1.20" PMx="0.07" fuel="1.13" electricity="0.00" noise="55.94" route="route01" type="Car" waiting="0.00" lane="e1_0" pos="5.10" speed="0.00" angle="90.00" x="3.66" y="-8.00"/>
    </timestep>
    <timestep time="1.00">
        <vehicle id="0" eclass="HBEFA3/PC_G_EU4" CO2="4652.12" CO="157.25" HC="0.83" NOx="2.08" PMx="0.10" fuel="2.00" electricity="0.00" noise="70.30" route="route01" type="Car" waiting="0.00" lane="e1_0" pos="8.10" speed="3.00" angle="90.00" x="5.81" y="-8.00"/>
    </timestep>
    <timestep time="2.00">
        <vehicle id="0" eclass="HBEFA3/PC_G_EU4" CO2="6820.82" CO="160.15" HC="0.89" NOx="3.02" PMx="0.15" fuel="2.93" electricity="0.00" noise="71.55" route="route01" type="Car" waiting="0.00" lane="e1_0" pos="14.10" speed="6.00" angle="90.00" x="10.11" y="-8.00"/>
        <vehicle id="1" eclass="HBEFA3/PC_G_EU4" CO2="2624.72" CO="164.78" HC="0.81" NOx="1.20" PMx="0.07" fuel="1.13" electricity="0.00" noise="55.94" route="route01" type="Car" waiting="0.00" lane="e1_0" pos="5.10" speed="0.00" angle="90.00" x="3.66" y="-8.00"/>
    </timestep>
    <timestep time="3.00">
        <vehicle id="0" eclass="HBEFA3/PC_G_EU4" CO2="9130.82" CO="173.49" HC="1.01" NOx="4.03" PMx="0.20" fuel="3.92" electricity="0.00" noise="72.88" route="route01" type="Car" waiting="0.00" lane="e1_0" pos="23.10" speed="9.00" angle="90.00" x="16.57" y="-8.00"/>
        <vehicle id="1" eclass="HBEFA3/PC_G_EU4" CO2="4652.12" CO="157.25" HC="0.83" NOx="2.08" PMx="0.10" fuel="2.00" electricity="0.00" noise="70.30" route="route01" type="Car" waiting="0.00" lane="e1_0" pos="8.10" speed="3.00" angle="90.00" x="5.81" y="-8.00"/>
    </timestep>
    <timestep time="4.00">
        <vehicle id="0" eclass="HBEFA3/PC_G_EU4" CO2="4718.89" CO="72.92" HC="0.44" NOx="1.93" PMx="0.08" fuel="2.03" electricity="0.00" noise="65.15" route="route01" type="Car" waiting="0.00" lane="e1_0" pos="33.10" speed="10.00" angle="90.00" x="23.74" y="-8.00"/>
        <vehicle id="1" eclass="HBEFA3/PC_G_EU4" CO2="6369.47" CO="153.41" HC="0.85" NOx="2.81" PMx="0.14" fuel="2.74" electricity="0.00" noise="70.59" route="route01" type="Car" waiting="0.00" lane="e1_0" pos="13.90" speed="5.80" angle="90.00" x="9.97" y="-8.00"/>
        <vehicle id="2" eclass="HBEFA3/PC_G_EU4" CO2="2624.72" CO="164.78" HC="0.81" NOx="1.20" PMx="0.07" fuel="1.13" electricity="0.00" noise="55.94" route="route01" type="Car" waiting="0.00" lane="e1_0" pos="5.10" speed="0.00" angle="90.00" x="3.66" y="-8.00"/>
    </timestep>
    <timestep time="5.00">
        <vehicle id="0" eclass="HBEFA3/PC_G_EU4" CO2="2112.22" CO="19.25" HC="0.13" NOx="0.70" PMx="0.01" fuel="0.91" electricity="0.00" noise="61.77" route="route01" type="Car" waiting="0.00" lane="e1_0" pos="43.10" speed="10.00" angle="90.00" x="30.91" y="-8.00"/>
        <vehicle id="1" eclass="HBEFA3/PC_G_EU4" CO2="5369.04" CO="112.44" HC="0.64" NOx="2.30" PMx="0.10" fuel="2.31" electricity="0.00" noise="66.54" route="route01" type="Car" waiting="0.00" lane="e1_0" pos="21.38" speed="7.48" angle="90.00" x="15.33" y="-8.00"/>
        <vehicle id="2" eclass="HBEFA3/PC_G_EU4" CO2="4652.12" CO="157.25" HC="0.83" NOx="2.08" PMx="0.10" fuel="2.00" electricity="0.00" noise="70.30" route="route01" type="Car" waiting="0.00" lane="e1_0" pos="8.10" speed="3.00" angle="90.00" x="5.81" y="-8.00"/>
    </timestep>
    <timestep time="6.00">
        <vehicle id="0" eclass="HBEFA3/PC_G_EU4" CO2="2112.22" CO="19.25" HC="0.13" NOx="0.70" PMx="0.01" fuel="0.91" electricity="0.00" noise="61.77" route="route01" type="Car" waiting="0.00" lane="e1_0" pos="53.10" speed="10.00" angle="90.00" x="38.09" y="-8.00"/>
        <vehicle id="1" eclass="HBEFA3/PC_G_EU4" CO2="4319.21" CO="79.73" HC="0.46" NOx="1.78" PMx="0.07" fuel="1.86" electricity="0.00" noise="64.33" route="route01" type="Car" waiting="0.00" lane="e1_0" pos="29.87" speed="8.49" angle="90.00" x="21.42" y="-8.00"/>
        <vehicle id="2" eclass="HBEFA3/PC_G_EU4" CO2="6369.47" CO="153.41" HC="0.85" NOx="2.81" PMx="0.14" fuel="2.74" electricity="0.00" noise="70.59" route="route01" type="Car" waiting="0.00" lane="e1_0" pos="13.90" speed="5.80" angle="90.00" x="9.97" y="-8.00"/>
        <vehicle id="3" eclass="HBEFA3/PC_G_EU4" CO2="2624.72" CO="164.78" HC="0.81" NOx="1.20" PMx="0.07" fuel="1.13" electricity="0.00" noise="55.94" route="route01" type="Car" waiting="0.00" lane="e1_0" pos="5.10" speed="0.00" angle="90.00" x="3.66" y="-8.00"/>
    </timestep>
    <timestep time="7.00">
        <vehicle id="0" eclass="HBEFA3/PC_G_EU4" CO2="2112.22" CO="19.25" HC="0.13" NOx="0.70" PMx="0.01" fuel="0.91" electricity="0.00" noise="61.77" route="route01" type="Car" waiting="0.00" lane="e1_0" pos="63.10" speed="10.00" angle="90.00" x="45.26" y="-8.00"/>
        <vehicle id="1" eclass="HBEFA3/PC_G_EU4" CO2="3527.45" CO="57.19" HC="0.34" NOx="1.39" PMx="0.05" fuel="1.52" electricity="0.00" noise="63.16" route="route01" type="Car" waiting="0.00" lane="e1_0" pos="38.96" speed="9.09" angle="90.00" x="27.94" y="-8.00"/>
        <vehicle id="2" eclass="HBEFA3/PC_G_EU4" CO2="2354.26" CO="68.90" HC="0.37" NOx="0.92" PMx="0.03" fuel="1.01" electricity="0.00" noise="59.49" route="route01" type="Car" waiting="0.00" lane="e1_0" pos="19.84" speed="5.94" angle="90.00" x="14.23" y="-8.00"/>
        <vehicle id="3" eclass="HBEFA3/PC_G_EU4" CO2="4652.12" CO="157.25" HC="0.83" NOx="2.08" PMx="0.10" fuel="2.00" electricity="0.00" noise="70.30" route="route01" type="Car" waiting="0.00" lane="e1_0" pos="8.10" speed="3.00" angle="90.00" x="5.81" y="-8.00"/>
    </timestep>
    <timestep time="8.00">
        <vehicle id="0" eclass="HBEFA3/PC_G_EU4" CO2="2112.22" CO="19.25" HC="0.13" NOx="0.70" PMx="0.01" fuel="0.91" electricity="0.00" noise="61.77" route="route01" type="Car" waiting="0.00" lane="e1_0" pos="73.10" speed="10.00" angle="90.00" x="52.43" y="-8.00"/>
        <vehicle id="1" eclass="HBEFA3/PC_G_EU4" CO2="2994.13" CO="42.60" HC="0.26" NOx="1.13" PMx="0.04" fuel="1.29" electricity="0.00" noise="62.55" route="route01" type="Car" waiting="0.00" lane="e1_0" pos="48.42" speed="9.46" angle="90.00" x="34.73" y="-8.00"/>
        <vehicle id="2" eclass="HBEFA3/PC_G_EU4" CO2="2412.68" CO="67.83" HC="0.36" NOx="0.94" PMx="0.03" fuel="1.04" electricity="0.00" noise="59.74" route="route01" type="Car" waiting="0.00" lane="e1_0" pos="25.97" speed="6.12" angle="90.00" x="18.63" y="-8.00"/>
        <vehicle id="3" eclass="HBEFA3/PC_G_EU4" CO2="0.00" CO="0.00" HC="0.00" NOx="0.00" PMx="0.00" fuel="0.00" electricity="0.00" noise="55.95" route="route01" type="Car" waiting="0.00" lane="e1_0" pos="10.83" speed="2.73" angle="90.00" x="7.77" y="-8.00"/>
    </timestep>
    <timestep time="9.00">
        <vehicle id="0" eclass="HBEFA3/PC_G_EU4" CO2="2112.22" CO="19.25" HC="0.13" NOx="0.70" PMx="0.01" fuel="0.91" electricity="0.00" noise="61.77" route="route01" type="Car" waiting="0.00" lane=":J2_1_0" pos="3.10" speed="10.00" angle="90.00" x="60.48" y="-8.00"/>
        <vehicle id="1" eclass="HBEFA3/PC_G_EU4" CO2="2653.17" CO="33.48" HC="0.21" NOx="0.96" PMx="0.03" fuel="1.14" electricity="0.00" noise="62.22" route="route01" type="Car" waiting="0.00" lane="e1_0" pos="58.09" speed="9.67" angle="90.00" x="41.66" y="-8.00"/>
        <vehicle id="2" eclass="HBEFA3/PC_G_EU4" CO2="5192.42" CO="106.59" HC="0.61" NOx="2.21" PMx="0.10" fuel="2.23" electricity="0.00" noise="66.10" route="route01" type="Car" waiting="0.00" lane="e1_0" pos="33.64" speed="7.67" angle="90.00" x="24.13" y="-8.00"/>
        <vehicle id="3" eclass="HBEFA3/PC_G_EU4" CO2="6416.10" CO="156.44" HC="0.87" NOx="2.84" PMx="0.14" fuel="2.76" electricity="0.00" noise="70.99" route="route01" type="Car" waiting="0.00" lane="e1_0" pos="16.47" speed="5.64" angle="90.00" x="11.81" y="-8.00"/>
        <vehicle id="4" eclass="HBEFA3/PC_G_EU4" CO2="2624.72" CO="164.78" HC="0.81" NOx="1.20" PMx="0.07" fuel="1.13" electricity="0.00" noise="55.94" route="route01" type="Car" waiting="0.00" lane="e1_0" pos="5.10" speed="0.00" angle="90.00" x="3.66" y="-8.00"/>
    </timestep>
    <timestep time="10.00">
        <vehicle id="0" eclass="HBEFA3/PC_G_EU4" CO2="2112.22" CO="19.25" HC="0.13" NOx="0.70" PMx="0.01" fuel="0.91" electricity="0.00" noise="61.77" route="route01" type="Car" waiting="0.00" lane="e2_1" pos="9.41" speed="10.00" angle="90.00" x="71.23" y="-8.00"/>
        <vehicle id="1" eclass="HBEFA3/PC_G_EU4" CO2="2441.04" CO="27.86" HC="0.18" NOx="0.86" PMx="0.02" fuel="1.05" electricity="0.00" noise="62.03" route="route01" type="Car" waiting="0.00" lane="e1_0" pos="67.89" speed="9.80" angle="90.00" x="48.70" y="-8.00"/>
        <vehicle id="2" eclass="HBEFA3/PC_G_EU4" CO2="4175.64" CO="75.55" HC="0.44" NOx="1.70" PMx="0.07" fuel="1.79" electricity="0.00" noise="64.09" route="route01" type="Car" waiting="0.00" lane="e1_0" pos="42.25" speed="8.60" angle="90.00" x="30.30" y="-8.00"/>
        <vehicle id="3" eclass="HBEFA3/PC_G_EU4" CO2="5451.82" CO="115.25" HC="0.65" NOx="2.34" PMx="0.11" fuel="2.34" electricity="0.00" noise="66.77" route="route01" type="Car" waiting="0.00" lane="e1_0" pos="23.85" speed="7.38" angle="90.00" x="17.11" y="-8.00"/>
        <vehicle id="4" eclass="HBEFA3/PC_G_EU4" CO2="4652.12" CO="157.25" HC="0.83" NOx="2.08" PMx="0.10" fuel="2.00" electricity="0.00" noise="70.30" route="route01" type="Car" waiting="0.00" lane="e1_0" pos="8.10" speed="3.00" angle="90.00" x="5.81" y="-8.00"/>
    </timestep>
    <timestep time="11.00">
        <vehicle id="0" eclass="HBEFA3/PC_G_EU4" CO2="0.00" CO="0.00" HC="0.00" NOx="0.00" PMx="0.00" fuel="0.00" electricity="0.00" noise="58.69" route="route01" type="Car" waiting="0.00" lane="e2_1" pos="18.50" speed="9.09" angle="90.00" x="81.04" y="-8.00"/>
        <vehicle id="1" eclass="HBEFA3/PC_G_EU4" CO2="2311.04" CO="24.44" HC="0.16" NOx="0.79" PMx="0.02" fuel="0.99" electricity="0.00" noise="61.93" route="route01" type="Car" waiting="0.00" lane="e1_0" pos="77.78" speed="9.88" angle="90.00" x="55.79" y="-8.00"/>
        <vehicle id="2" eclass="HBEFA3/PC_G_EU4" CO2="3427.78" CO="54.43" HC="0.33" NOx="1.34" PMx="0.05" fuel="1.47" electricity="0.00" noise="63.04" route="route01" type="Car" waiting="0.00" lane="e1_0" pos="51.41" speed="9.16" angle="90.00" x="36.87" y="-8.00"/>
        <vehicle id="3" eclass="HBEFA3/PC_G_EU4" CO2="2393.97" CO="50.54" HC="0.28" NOx="0.89" PMx="0.03" fuel="1.03" electricity="0.00" noise="60.55" route="route01" type="Car" waiting="0.00" lane="e1_0" pos="31.39" speed="7.54" angle="90.00" x="22.52" y="-8.00"/>
        <vehicle id="4" eclass="HBEFA3/PC_G_EU4" CO2="6369.47" CO="153.41" HC="0.85" NOx="2.81" PMx="0.14" fuel="2.74" electricity="0.00" noise="70.59" route="route01" type="Car" waiting="0.00" lane="e1_0" pos="13.90" speed="5.80" angle="90.00" x="9.97" y="-8.00"/>
    </timestep>
    <timestep time="12.00">
        <vehicle id="0" eclass="HBEFA3/PC_G_EU4" CO2="0.00" CO="0.00" HC="0.00" NOx="0.00" PMx="0.00" fuel="0.00" electricity="0.00" noise="57.83" route="route01" type="Car" waiting="0.00" lane="e2_1" pos="26.68" speed="8.18" angle="90.00" x="89.87" y="-8.00"/>
        <vehicle id="1" eclass="HBEFA3/PC_G_EU4" CO2="2232.06" CO="22.38" HC="0.15" NOx="0.75" PMx="0.02" fuel="0.96" electricity="0.00" noise="61.86" route="route01" type="Car" waiting="0.00" lane="e2_1" pos="4.02" speed="9.93" angle="90.00" x="65.40" y="-8.00"/>
        <vehicle id="2" eclass="HBEFA3/PC_G_EU4" CO2="2929.46" CO="40.86" HC="0.25" NOx="1.09" PMx="0.04" fuel="1.26" electricity="0.00" noise="62.48" route="route01" type="Car" waiting="0.00" lane="e1_0" pos="60.91" speed="9.50" angle="90.00" x="43.69" y="-8.00"/>
        <vehicle id="3" eclass="HBEFA3/PC_G_EU4" CO2="2293.51" CO="47.32" HC="0.27" NOx="0.84" PMx="0.02" fuel="0.99" electricity="0.00" noise="60.43" route="route01" type="Car" waiting="0.00" lane="e1_0" pos="39.03" speed="7.64" angle="90.00" x="27.99" y="-8.00"/>
        <vehicle id="4" eclass="HBEFA3/PC_G_EU4" CO2="5369.04" CO="112.44" HC="0.64" NOx="2.30" PMx="0.10" fuel="2.31" electricity="0.00" noise="66.54" route="route01" type="Car" waiting="0.00" lane="e1_0" pos="21.38" speed="7.48" angle="90.00" x="15.33" y="-8.00"/>
    </timestep>
    <timestep time="13.00">
        <vehicle id="0" eclass="HBEFA3/PC_G_EU4" CO2="0.00" CO="0.00" HC="0.00" NOx="0.00" PMx="0.00" fuel="0.00" electricity="0.00" noise="56.98" route="route01" type="Car" waiting="0.00" lane="e2_1" pos="33.96" speed="7.27" angle="90.00" x="97.72" y="-8.00"/>
        <vehicle id="1" eclass="HBEFA3/PC_G_EU4" CO2="2184.33" CO="21.13" HC="0.14" NOx="0.73" PMx="0.01" fuel="0.94" electricity="0.00" noise="61.83" route="route01" type="Car" waiting="0.00" lane="e2_1" pos="13.97" speed="9.96" angle="90.00" x="76.15" y="-8.00"/>
        <vehicle id="2" eclass="HBEFA3/PC_G_EU4" CO2="2612.61" CO="32.40" HC="0.21" NOx="0.94" PMx="0.03" fuel="1.12" electricity="0.00" noise="62.18" route="route01" type="Car" waiting="0.00" lane="e1_0" pos="70.61" speed="9.70" angle="90.00" x="50.64" y="-8.00"/>
        <vehicle id="3" eclass="HBEFA3/PC_G_EU4" CO2="2331.73" CO="46.77" HC="0.26" NOx="0.86" PMx="0.02" fuel="1.00" electricity="0.00" noise="60.58" route="route01" type="Car" waiting="0.00" lane="e1_0" pos="46.79" speed="7.76" angle="90.00" x="33.56" y="-8.00"/>
        <vehicle id="4" eclass="HBEFA3/PC_G_EU4" CO2="2288.86" CO="47.89" HC="0.27" NOx="0.84" PMx="0.02" fuel="0.98" electricity="0.00" noise="60.39" route="route01" type="Car" waiting="0.00" lane="e1_0" pos="28.96" speed="7.58" angle="90.00" x="20.77" y="-8.00"/>
    </timestep>
    <timestep time="14.00">
        <vehicle id="0" eclass="HBEFA3/PC_G_EU4" CO2="0.00" CO="0.00" HC="0.00" NOx="0.00" PMx="0.00" fuel="0.00" electricity="0.00" noise="56.14" route="route01" type="Car" waiting="0.00" lane="e2_1" pos="40.32" speed="6.36" angle="90.00" x="104.59" y="-8.00"/>
        <vehicle id="1" eclass="HBEFA3/PC_G_EU4" CO2="0.00" CO="0.00" HC="0.00" NOx="0.00" PMx="0.00" fuel="0.00" electricity="0.00" noise="61.66" route="route01" type="Car" waiting="0.00" lane="e2_1" pos="23.91" speed="9.94" angle="90.00" x="86.88" y="-8.00"/>
        <vehicle id="2" eclass="HBEFA3/PC_G_EU4" CO2="2416.07" CO="27.20" HC="0.18" NOx="0.84" PMx="0.02" fuel="1.04" electricity="0.00" noise="62.01" route="route01" type="Car" waiting="0.00" lane=":J2_1_0" pos="0.43" speed="9.82" angle="90.00" x="57.81" y="-8.00"/>
        <vehicle id="3" eclass="HBEFA3/PC_G_EU4" CO2="4113.33" CO="73.74" HC="0.43" NOx="1.67" PMx="0.07" fuel="1.77" electricity="0.00" noise="63.99" route="route01" type="Car" waiting="0.00" lane="e1_0" pos="55.44" speed="8.65" angle="90.00" x="39.77" y="-8.00"/>
        <vehicle id="4" eclass="HBEFA3/PC_G_EU4" CO2="2122.02" CO="44.29" HC="0.25" NOx="0.76" PMx="0.02" fuel="0.91" electricity="0.00" noise="60.10" route="route01" type="Car" waiting="0.00" lane="e1_0" pos="36.55" speed="7.59" angle="90.00" x="26.22" y="-8.00"/>
    </timestep>
    <timestep time="15.00">
        <vehicle id="0" eclass="HBEFA3/PC_G_EU4" CO2="0.00" CO="0.00" HC="0.00" NOx="0.00" PMx="0.00" fuel="0.00" electricity="0.00" noise="55.32" route="route01" type="Car" waiting="0.00" lane="e2_1" pos="45.77" speed="5.45" angle="90.00" x="110.48" y="-8.00"/>
        <vehicle id="1" eclass="HBEFA3/PC_G_EU4" CO2="0.00" CO="0.00" HC="0.00" NOx="0.00" PMx="0.00" fuel="0.00" electricity="0.00" noise="56.14" route="route01" type="Car" waiting="0.00" lane="e2_1" pos="32.08" speed="8.17" angle="90.00" x="95.70" y="-8.00"/>
        <vehicle id="2" eclass="HBEFA3/PC_G_EU4" CO2="2295.83" CO="24.05" HC="0.16" NOx="0.78" PMx="0.02" fuel="0.99" electricity="0.00" noise="61.91" route="route01" type="Car" waiting="0.00" lane="e2_1" pos="6.63" speed="9.89" angle="90.00" x="68.23" y="-8.00"/>
        <vehicle id="3" eclass="HBEFA3/PC_G_EU4" CO2="3384.98" CO="53.25" HC="0.32" NOx="1.32" PMx="0.05" fuel="1.46" electricity="0.00" noise="62.99" route="route01" type="Car" waiting="0.00" lane="e1_0" pos="64.63" speed="9.19" angle="90.00" x="46.36" y="-8.00"/>
        <vehicle id="4" eclass="HBEFA3/PC_G_EU4" CO2="2211.64" CO="45.45" HC="0.26" NOx="0.80" PMx="0.02" fuel="0.95" electricity="0.00" noise="60.30" route="route01" type="Car" waiting="0.00" lane="e1_0" pos="44.21" speed="7.65" angle="90.00" x="31.71" y="-8.00"/>
    </timestep>
    <timestep time="16.00">
        <vehicle id="0" eclass="HBEFA3/PC_G_EU4" CO2="0.00" CO="0.00" HC="0.00" NOx="0.00" PMx="0.00" fuel="0.00" electricity="0.00" noise="54.56" route="route01" type="Car" waiting="0.00" lane="e2_1" pos="50.32" speed="4.55" angle="90.00" x="115.39" y="-8.00"/>
        <vehicle id="1" eclass="HBEFA3/PC_G_EU4" CO2="0.00" CO="0.00" HC="0.00" NOx="0.00" PMx="0.00" fuel="0.00" electricity="0.00" noise="52.47" route="route01" type="Car" waiting="0.00" lane="e2_1" pos="38.01" speed="5.93" angle="90.00" x="102.10" y="-8.00"/>
        <vehicle id="2" eclass="HBEFA3/PC_G_EU4" CO2="2222.86" CO="22.14" HC="0.15" NOx="0.75" PMx="0.02" fuel="0.96" electricity="0.00" noise="61.86" route="route01" type="Car" waiting="0.00" lane="e2_1" pos="16.56" speed="9.93" angle="90.00" x="78.95" y="-8.00"/>
        <vehicle id="3" eclass="HBEFA3/PC_G_EU4" CO2="2901.83" CO="40.12" HC="0.25" NOx="1.08" PMx="0.03" fuel="1.25" electricity="0.00" noise="62.45" route="route01" type="Car" waiting="0.00" lane="e1_0" pos="74.15" speed="9.52" angle="90.00" x="53.18" y="-8.00"/>
        <vehicle id="4" eclass="HBEFA3/PC_G_EU4" CO2="2280.04" CO="45.80" HC="0.26" NOx="0.83" PMx="0.02" fuel="0.98" electricity="0.00" noise="60.48" route="route01" type="Car" waiting="0.00" lane="e1_0" pos="51.96" speed="7.75" angle="90.00" x="37.27" y="-8.00"/>
    </timestep>
    <timestep time="17.00">
        <vehicle id="0" eclass="HBEFA3/PC_G_EU4" CO2="0.00" CO="0.00" HC="0.00" NOx="0.00" PMx="0.00" fuel="0.00" electricity="0.00" noise="53.86" route="route01" type="Car" waiting="0.00" lane="e2_1" pos="53.96" speed="3.64" angle="90.00" x="119.31" y="-8.00"/>
        <vehicle id="1" eclass="HBEFA3/PC_G_EU4" CO2="0.00" CO="0.00" HC="0.00" NOx="0.00" PMx="0.00" fuel="0.00" electricity="0.00" noise="51.11" route="route01" type="Car" waiting="0.00" lane="e2_1" pos="42.13" speed="4.12" angle="90.00" x="106.55" y="-8.00"/>
        <vehicle id="2" eclass="HBEFA3/PC_G_EU4" CO2="0.00" CO="0.00" HC="0.00" NOx="0.00" PMx="0.00" fuel="0.00" electricity="0.00" noise="61.04" route="route01" type="Car" waiting="0.00" lane="e2_1" pos="26.31" speed="9.74" angle="90.00" x="89.47" y="-8.00"/>
        <vehicle id="3" eclass="HBEFA3/PC_G_EU4" CO2="2595.33" CO="31.94" HC="0.20" NOx="0.93" PMx="0.03" fuel="1.12" electricity="0.00" noise="62.16" route="route01" type="Car" waiting="0.00" lane="e2_1" pos="0.17" speed="9.71" angle="90.00" x="61.25" y="-8.00"/>
        <vehicle id="4" eclass="HBEFA3/PC_G_EU4" CO2="2326.10" CO="45.47" HC="0.26" NOx="0.85" PMx="0.02" fuel="1.00" electricity="0.00" noise="60.64" route="route01" type="Car" waiting="0.00" lane="e1_0" pos="59.82" speed="7.86" angle="90.00" x="42.91" y="-8.00"/>
    </timestep>
    <timestep time="18.00">
        <vehicle id="0" eclass="HBEFA3/PC_G_EU4" CO2="0.00" CO="0.00" HC="0.00" NOx="0.00" PMx="0.00" fuel="0.00" electricity="0.00" noise="53.25" route="route01" type="Car" waiting="0.00" lane="e2_1" pos="56.68" speed="2.73" angle="90.00" x="122.26" y="-8.00"/>
        <vehicle id="1" eclass="HBEFA3/PC_G_EU4" CO2="0.00" CO="0.00" HC="0.00" NOx="0.00" PMx="0.00" fuel="0.00" electricity="0.00" noise="52.44" route="route01" type="Car" waiting="0.00" lane="e2_1" pos="45.10" speed="2.97" angle="90.00" x="109.76" y="-8.00"/>
        <vehicle id="2" eclass="HBEFA3/PC_G_EU4" CO2="0.00" CO="0.00" HC="0.00" NOx="0.00" PMx="0.00" fuel="0.00" electricity="0.00" noise="55.14" route="route01" type="Car" waiting="0.00" lane="e2_1" pos="34.00" speed="7.69" angle="90.00" x="97.77" y="-8.00"/>
        <vehicle id="3" eclass="HBEFA3/PC_G_EU4" CO2="2405.45" CO="26.92" HC="0.18" NOx="0.84" PMx="0.02" fuel="1.03" electricity="0.00" noise="62.00" route="route01" type="Car" waiting="0.00" lane="e2_1" pos="10.00" speed="9.83" angle="90.00" x="71.86" y="-8.00"/>
        <vehicle id="4" eclass="HBEFA3/PC_G_EU4" CO2="4032.00" CO="71.41" HC="0.42" NOx="1.63" PMx="0.07" fuel="1.73" electricity="0.00" noise="63.87" route="route01" type="Car" waiting="0.00" lane="e1_0" pos="68.54" speed="8.72" angle="90.00" x="49.16" y="-8.00"/>
    </timestep>
    <timestep time="19.00">
        <vehicle id="0" eclass="HBEFA3/PC_G_EU4" CO2="0.00" CO="0.00" HC="0.00" NOx="0.00" PMx="0.00" fuel="0.00" electricity="0.00" noise="52.73" route="route01" type="Car" waiting="0.00" lane="e2_1" pos="58.50" speed="1.82" angle="90.00" x="124.22" y="-8.00"/>
        <vehicle id="1" eclass="HBEFA3/PC_G_EU4" CO2="0.00" CO="0.00" HC="0.00" NOx="0.00" PMx="0.00" fuel="0.00" electricity="0.00" noise="53.89" route="route01" type="Car" waiting="0.00" lane="e2_1" pos="47.38" speed="2.28" angle="90.00" x="112.21" y="-8.00"/>
        <vehicle id="2" eclass="HBEFA3/PC_G_EU4" CO2="0.00" CO="0.00" HC="0.00" NOx="0.00" PMx="0.00" fuel="0.00" electricity="0.00" noise="48.21" route="route01" type="Car" waiting="0.00" lane="e2_1" pos="38.39" speed="4.39" angle="90.00" x="102.50" y="-8.00"/>
        <vehicle id="3" eclass="HBEFA3/PC_G_EU4" CO2="2289.37" CO="23.88" HC="0.16" NOx="0.78" PMx="0.02" fuel="0.98" electricity="0.00" noise="61.91" route="route01" type="Car" waiting="0.00" lane="e2_1" pos="19.89" speed="9.90" angle="90.00" x="82.54" y="-8.00"/>
        <vehicle id="4" eclass="HBEFA3/PC_G_EU4" CO2="3329.51" CO="51.73" HC="0.31" NOx="1.29" PMx="0.05" fuel="1.43" electricity="0.00" noise="62.92" route="route01" type="Car" waiting="0.00" lane="e1_0" pos="77.77" speed="9.23" angle="90.00" x="55.78" y="-8.00"/>
    </timestep>
    <timestep time="20.00">
        <vehicle id="0" eclass="HBEFA3/PC_G_EU4" CO2="0.00" CO="0.00" HC="0.00" NOx="0.00" PMx="0.00" fuel="0.00" electricity="0.00" noise="52.30" route="route01" type="Car" waiting="0.00" lane="e2_1" pos="59.41" speed="0.91" angle="90.00" x="125.20" y="-8.00"/>
        <vehicle id="1" eclass="HBEFA3/PC_G_EU4" CO2="0.00" CO="0.00" HC="0.00" NOx="0.00" PMx="0.00" fuel="0.00" electricity="0.00" noise="54.11" route="route01" type="Car" waiting="0.00" lane="e2_1" pos="49.08" speed="1.70" angle="90.00" x="114.05" y="-8.00"/>
        <vehicle id="2" eclass="HBEFA3/PC_G_EU4" CO2="0.00" CO="0.00" HC="0.00" NOx="0.00" PMx="0.00" fuel="0.00" electricity="0.00" noise="45.22" route="route01" type="Car" waiting="0.00" lane="e2_1" pos="40.08" speed="1.69" angle="90.00" x="104.33" y="-8.00"/>
        <vehicle id="3" eclass="HBEFA3/PC_G_EU4" CO2="0.00" CO="0.00" HC="0.00" NOx="0.00" PMx="0.00" fuel="0.00" electricity="0.00" noise="57.99" route="route01" type="Car" waiting="0.00" lane="e2_1" pos="28.68" speed="8.79" angle="90.00" x="92.03" y="-8.00"/>
        <vehicle id="4" eclass="HBEFA3/PC_G_EU4" CO2="2866.14" CO="39.16" HC="0.24" NOx="1.06" PMx="0.03" fuel="1.23" electricity="0.00" noise="62.42" route="route01" type="Car" waiting="0.00" lane="e2_1" pos="3.62" speed="9.54" angle="90.00" x="64.98" y="-8.00"/>
    </timestep>
    <timestep time="21.00">
        <vehicle id="0" eclass="HBEFA3/PC_G_EU4" CO2="0.00" CO="0.00" HC="0.00" NOx="0.00" PMx="0.00" fuel="0.00" electricity="0.00" noise="51.94" route="route01" type="Car" waiting="1.00" lane="e2_1" pos="59.41" speed="0.00" angle="90.00" x="125.20" y="-8.00"/>
        <vehicle id="1" eclass="HBEFA3/PC_G_EU4" CO2="0.00" CO="0.00" HC="0.00" NOx="0.00" PMx="0.00" fuel="0.00" electricity="0.00" noise="53.34" route="route01" type="Car" waiting="0.00" lane="e2_1" pos="50.09" speed="1.02" angle="90.00" x="115.14" y="-8.00"/>
        <vehicle id="2" eclass="HBEFA3/PC_G_EU4" CO2="0.00" CO="0.00" HC="0.00" NOx="0.00" PMx="0.00" fuel="0.00" electricity="0.00" noise="50.16" route="route01" type="Car" waiting="0.00" lane="e2_1" pos="40.42" speed="0.35" angle="90.00" x="104.70" y="-8.00"/>
        <vehicle id="3" eclass="HBEFA3/PC_G_EU4" CO2="0.00" CO="0.00" HC="0.00" NOx="0.00" PMx="0.00" fuel="0.00" electricity="0.00" noise="49.12" route="route01" type="Car" waiting="0.00" lane="e2_1" pos="33.74" speed="5.05" angle="90.00" x="97.49" y="-8.00"/>
        <vehicle id="4" eclass="HBEFA3/PC_G_EU4" CO2="2573.05" CO="31.35" HC="0.20" NOx="0.92" PMx="0.03" fuel="1.11" electricity="0.00" noise="62.14" route="route01" type="Car" waiting="0.00" lane="e2_1" pos="13.34" speed="9.72" angle="90.00" x="75.47" y="-8.00"/>
    </timestep>
    <timestep time="22.00">
        <vehicle id="0" eclass="HBEFA3/PC_G_EU4" CO2="4652.12" CO="157.25" HC="0.83" NOx="2.08" PMx="0.10" fuel="2.00" electricity="0.00" noise="70.30" route="route01" type="Car" waiting="0.00" lane="e2_1" pos="62.41" speed="3.00" angle="90.00" x="128.44" y="-8.00"/>
        <vehicle id="1" eclass="HBEFA3/PC_G_EU4" CO2="0.00" CO="0.00" HC="0.00" NOx="0.00" PMx="0.00" fuel="0.00" electricity="0.00" noise="52.26" route="route01" type="Car" waiting="0.00" lane="e2_1" pos="50.26" speed="0.17" angle="90.00" x="115.32" y="-8.00"/>
        <vehicle id="2" eclass="HBEFA3/PC_G_EU4" CO2="4895.32" CO="157.05" HC="0.83" NOx="2.18" PMx="0.11" fuel="2.10" electricity="0.00" noise="70.44" route="route01" type="Car" waiting="0.00" lane="e2_1" pos="43.77" speed="3.35" angle="90.00" x="108.32" y="-8.00"/>
        <vehicle id="3" eclass="HBEFA3/PC_G_EU4" CO2="0.00" CO="0.00" HC="0.00" NOx="0.00" PMx="0.00" fuel="0.00" electricity="0.00" noise="33.71" route="route01" type="Car" waiting="1.00" lane="e2_1" pos="33.74" speed="0.00" angle="90.00" x="97.49" y="-8.00"/>
        <vehicle id="4" eclass="HBEFA3/PC_G_EU4" CO2="0.00" CO="0.00" HC="0.00" NOx="0.00" PMx="0.00" fuel="0.00" electricity="0.00" noise="60.76" route="route01" type="Car" waiting="0.00" lane="e2_1" pos="22.84" speed="9.50" angle="90.00" x="85.73" y="-8.00"/>
    </timestep>
    <timestep time="23.00">
        <vehicle id="0" eclass="HBEFA3/PC_G_EU4" CO2="6820.82" CO="160.15" HC="0.89" NOx="3.02" PMx="0.15" fuel="2.93" electricity="0.00" noise="71.55" route="route01" type="Car" waiting="0.00" lane="e2_1" pos="68.41" speed="6.00" angle="90.00" x="134.91" y="-8.00"/>
        <vehicle id="1" eclass="HBEFA3/PC_G_EU4" CO2="4768.39" CO="157.14" HC="0.83" NOx="2.13" PMx="0.11" fuel="2.05" electricity="0.00" noise="70.37" route="route01" type="Car" waiting="0.00" lane="e2_1" pos="53.43" speed="3.17" angle="90.00" x="118.74" y="-8.00"/>
        <vehicle id="2" eclass="HBEFA3/PC_G_EU4" CO2="0.00" CO="0.00" HC="0.00" NOx="0.00" PMx="0.00" fuel="0.00" electricity="0.00" noise="41.22" route="route01" type="Car" waiting="1.00" lane="e2_1" pos="43.77" speed="0.00" angle="90.00" x="108.32" y="-8.00"/>
        <vehicle id="3" eclass="HBEFA3/PC_G_EU4" CO2="4652.12" CO="157.25" HC="0.83" NOx="2.08" PMx="0.10" fuel="2.00" electricity="0.00" noise="70.30" route="route01" type="Car" waiting="0.00" lane="e2_1" pos="36.74" speed="3.00" angle="90.00" x="100.73" y="-8.00"/>
        <vehicle id="4" eclass="HBEFA3/PC_G_EU4" CO2="0.00" CO="0.00" HC="0.00" NOx="0.00" PMx="0.00" fuel="0.00" electricity="0.00" noise="48.44" route="route01" type="Car" waiting="0.00" lane="e2_1" pos="27.79" speed="4.95" angle="90.00" x="91.07" y="-8.00"/>
    </timestep>
    <timestep time="24.00">
        <vehicle id="0" eclass="HBEFA3/PC_G_EU4" CO2="9130.82" CO="173.49" HC="1.01" NOx="4.03" PMx="0.20" fuel="3.92" electricity="0.00" noise="72.88" route="route01" type="Car" waiting="0.00" lane="e2_1" pos="77.41" speed="9.00" angle="90.00" x="144.63" y="-8.00"/>
        <vehicle id="1" eclass="HBEFA3/PC_G_EU4" CO2="6336.29" CO="151.45" HC="0.84" NOx="2.80" PMx="0.14" fuel="2.72" electricity="0.00" noise="70.35" route="route01" type="Car" waiting="0.00" lane="e2_1" pos="59.32" speed="5.90" angle="90.00" x="125.11" y="-8.00"/>
        <vehicle id="2" eclass="HBEFA3/PC_G_EU4" CO2="4652.12" CO="157.25" HC="0.83" NOx="2.08" PMx="0.10" fuel="2.00" electricity="0.00" noise="70.30" route="route01" type="Car" waiting="0.00" lane="e2_1" pos="46.77" speed="3.00" angle="90.00" x="111.55" y="-8.00"/>
        <vehicle id="3" eclass="HBEFA3/PC_G_EU4" CO2="0.00" CO="0.00" HC="0.00" NOx="0.00" PMx="0.00" fuel="0.00" electricity="0.00" noise="42.74" route="route01" type="Car" waiting="1.00" lane="e2_1" pos="36.74" speed="0.00" angle="90.00" x="100.73" y="-8.00"/>
        <vehicle id="4" eclass="HBEFA3/PC_G_EU4" CO2="0.00" CO="0.00" HC="0.00" NOx="0.00" PMx="0.00" fuel="0.00" electricity="0.00" noise="44.28" route="route01" type="Car" waiting="0.00" lane="e2_1" pos="29.71" speed="1.92" angle="90.00" x="93.14" y="-8.00"/>
    </timestep>
    <timestep time="25.00">