<?xml version="1.0" encoding="UTF-8"?>

<!-- generated on 2023-11-22 10:14:39 by Eclipse SUMO sumo Version 1.16.0
<configuration xmlns:xsi="http://www.w3.org/2001/XMLSchema-instance" xsi:noNamespaceSchemaLocation="http://sumo.dlr.de/xsd/sumoConfiguration.xsd">

    <input>
        <net-file value="highway_2.net.xml"/>
        <route-files value="highway_2.rou.xml"/>
        <additional-files value="highway_2.add.xml"/>
    </input>

    <output>
        <fcd-output value="./results/spreadsheet/20231122_highway_2_tripInfo\000_fcdout.xml"/>
        <fcd-output.acceleration value="true"/>
        <full-output value="./results/spreadsheet/20231122_highway_2_tripInfo\000_fullout.xml"/>
    </output>

    <ssm_device>
        <device.ssm.probability value="1"/>
        <device.ssm.file value="./results/spreadsheet/20231122_highway_2_tripInfo\000_ssm.xml"/>
    </ssm_device>

    <traci_server>
        <remote-port value="53954"/>
    </traci_server>

    <gui_only>
        <quit-on-end value="true"/>
        <start value="true"/>
    </gui_only>

</configuration>
-->

<fcd-export xmlns:xsi="http://www.w3.org/2001/XMLSchema-instance" xsi:noNamespaceSchemaLocation="http://sumo.dlr.de/xsd/fcd_file.xsd">
    <timestep time="0.00">
        <vehicle id="0" x="5.10" y="-1.60" angle="90.00" type="Car01" speed="0.00" pos="5.10" lane="gneE0_0" slope="0.00" acceleration="0.00"/>
    </timestep>
    <timestep time="1.00">
        <vehicle id="0" x="7.13" y="-1.60" angle="90.00" type="Car01" speed="2.03" pos="7.13" lane="gneE0_0" slope="0.00" acceleration="2.03"/>
    </timestep>
    <timestep time="2.00">
        <vehicle id="0" x="11.11" y="-1.60" angle="90.00" type="Car01" speed="3.98" pos="11.11" lane="gneE0_0" slope="0.00" acceleration="1.95"/>
    </timestep>
    <timestep time="3.00">
        <vehicle id="0" x="17.66" y="-1.60" angle="90.00" type="Car01" speed="6.54" pos="17.66" lane="gneE0_0" slope="0.00" acceleration="2.56"/>
        <vehicle id="1" x="5.10" y="-1.60" angle="90.00" type="Car01" speed="0.00" pos="5.10" lane="gneE0_0" slope="0.00" acceleration="0.00"/>
    </timestep>
    <timestep time="4.00">
        <vehicle id="0" x="25.93" y="-1.60" angle="90.00" type="Car01" speed="8.27" pos="25.93" lane="gneE0_0" slope="0.00" acceleration="1.73"/>
        <vehicle id="1" x="6.52" y="-1.60" angle="90.00" type="Car01" speed="1.42" pos="6.52" lane="gneE0_0" slope="0.00" acceleration="1.42"/>
    </timestep>
    <timestep time="5.00">
        <vehicle id="0" x="35.88" y="-1.60" angle="90.00" type="Car01" speed="9.95" pos="35.88" lane="gneE0_0" slope="0.00" acceleration="1.68"/>
        <vehicle id="1" x="9.61" y="-1.60" angle="90.00" type="Car01" speed="3.08" pos="9.61" lane="gneE0_0" slope="0.00" acceleration="1.66"/>
    </timestep>
    <timestep time="6.00">
        <vehicle id="0" x="47.22" y="-1.60" angle="90.00" type="Car01" speed="11.34" pos="47.22" lane="gneE0_0" slope="0.00" acceleration="1.39"/>
        <vehicle id="1" x="14.44" y="-1.60" angle="90.00" type="Car01" speed="4.83" pos="14.44" lane="gneE0_0" slope="0.00" acceleration="1.75"/>
        <vehicle id="2" x="5.10" y="-1.60" angle="90.00" type="Car01" speed="0.00" pos="5.10" lane="gneE0_0" slope="0.00" acceleration="0.00"/>
    </timestep>
    <timestep time="7.00">
        <vehicle id="0" x="60.67" y="-1.60" angle="90.00" type="Car01" speed="13.46" pos="60.67" lane="gneE0_0" slope="0.00" acceleration="2.12"/>
        <vehicle id="1" x="20.65" y="-1.60" angle="90.00" type="Car01" speed="6.21" pos="20.65" lane="gneE0_0" slope="0.00" acceleration="1.37"/>
        <vehicle id="2" x="6.79" y="-1.60" angle="90.00" type="Car01" speed="1.69" pos="6.79" lane="gneE0_0" slope="0.00" acceleration="1.69"/>
    </timestep>
    <timestep time="8.00">
        <vehicle id="0" x="75.89" y="-1.60" angle="90.00" type="Car01" speed="15.21" pos="75.89" lane="gneE0_0" slope="0.00" acceleration="1.75"/>
        <vehicle id="1" x="28.29" y="-1.60" angle="90.00" type="Car01" speed="7.64" pos="28.29" lane="gneE0_0" slope="0.00" acceleration="1.44"/>
        <vehicle id="2" x="10.23" y="-1.60" angle="90.00" type="Car01" speed="3.44" pos="10.23" lane="gneE0_0" slope="0.00" acceleration="1.76"/>
    </timestep>
    <timestep time="9.00">
        <vehicle id="0" x="92.69" y="-1.60" angle="90.00" type="Car01" speed="16.81" pos="92.69" lane="gneE0_0" slope="0.00" acceleration="1.60"/>
        <vehicle id="1" x="37.35" y="-1.60" angle="90.00" type="Car01" speed="9.06" pos="37.35" lane="gneE0_0" slope="0.00" acceleration="1.42"/>
        <vehicle id="2" x="16.23" y="-1.60" angle="90.00" type="Car01" speed="6.00" pos="16.23" lane="gneE0_0" slope="0.00" acceleration="2.56"/>
        <vehicle id="3" x="5.10" y="-1.60" angle="90.00" type="Car01" speed="0.00" pos="5.10" lane="gneE0_0" slope="0.00" acceleration="0.00"/>
    </timestep>
    <timestep time="10.00">
        <vehicle id="0" x="111.21" y="-1.60" angle="90.00" type="Car01" speed="18.52" pos="111.21" lane="gneE0_0" slope="0.00" acceleration="1.71"/>
        <vehicle id="1" x="48.98" y="-1.60" angle="90.00" type="Car01" speed="11.63" pos="48.98" lane="gneE0_0" slope="0.00" acceleration="2.57"/>
        <vehicle id="2" x="24.36" y="-1.60" angle="90.00" type="Car01" speed="8.13" pos="24.36" lane="gneE0_0" slope="0.00" acceleration="2.12"/>
        <vehicle id="3" x="7.22" y="-1.60" angle="90.00" type="Car01" speed="2.12" pos="7.22" lane="gneE0_0" slope="0.00" acceleration="2.12"/>
    </timestep>
    <timestep time="11.00">
        <vehicle id="0" x="131.95" y="-1.60" angle="90.00" type="Car01" speed="20.74" pos="131.95" lane="gneE0_0" slope="0.00" acceleration="2.23"/>
        <vehicle id="1" x="62.71" y="-1.60" angle="90.00" type="Car01" speed="13.73" pos="62.71" lane="gneE0_0" slope="0.00" acceleration="2.09"/>
        <vehicle id="2" x="34.17" y="-1.60" angle="90.00" type="Car01" speed="9.81" pos="34.17" lane="gneE0_0" slope="0.00" acceleration="1.68"/>
        <vehicle id="3" x="10.83" y="-1.60" angle="90.00" type="Car01" speed="3.62" pos="10.83" lane="gneE0_0" slope="0.00" acceleration="1.50"/>
    </timestep>
    <timestep time="12.00">
        <vehicle id="0" x="154.39" y="-1.60" angle="90.00" type="Car01" speed="22.44" pos="154.39" lane="gneE0_0" slope="0.00" acceleration="1.69"/>
        <vehicle id="1" x="78.58" y="-1.60" angle="90.00" type="Car01" speed="15.87" pos="78.58" lane="gneE0_0" slope="0.00" acceleration="2.14"/>
        <vehicle id="2" x="45.58" y="-1.60" angle="90.00" type="Car01" speed="11.41" pos="45.58" lane="gneE0_0" slope="0.00" acceleration="1.60"/>
        <vehicle id="3" x="16.53" y="-1.60" angle="90.00" type="Car01" speed="5.70" pos="16.53" lane="gneE0_0" slope="0.00" acceleration="2.08"/>
        <vehicle id="4" x="5.10" y="-1.60" angle="90.00" type="Car01" speed="0.00" pos="5.10" lane="gneE0_0" slope="0.00" acceleration="0.00"/>
    </timestep>
    <timestep time="13.00">
        <vehicle id="0" x="179.20" y="-1.60" angle="90.00" type="Car01" speed="24.81" pos="179.20" lane="gneE0_0" slope="0.00" acceleration="2.37"/>
        <vehicle id="1" x="95.91" y="-1.60" angle="90.00" type="Car01" speed="17.33" pos="95.91" lane="gneE0_0" slope="0.00" acceleration="1.46"/>
        <vehicle id="2" x="58.46" y="-1.60" angle="90.00" type="Car01" speed="12.89" pos="58.46" lane="gneE0_0" slope="0.00" acceleration="1.48"/>
        <vehicle id="3" x="23.78" y="-1.60" angle="90.00" type="Car01" speed="7.25" pos="23.78" lane="gneE0_0" slope="0.00" acceleration="1.56"/>
        <vehicle id="4" x="7.29" y="-1.60" angle="90.00" type="Car01" speed="2.19" pos="7.29" lane="gneE0_0" slope="0.00" acceleration="2.19"/>
    </timestep>
    <timestep time="14.00">
        <vehicle id="0" x="206.37" y="-1.60" angle="90.00" type="Car01" speed="27.17" pos="206.37" lane="gneE0_0" slope="0.00" acceleration="2.36"/>
        <vehicle id="1" x="115.49" y="-1.60" angle="90.00" type="Car01" speed="19.58" pos="115.49" lane="gneE0_0" slope="0.00" acceleration="2.25"/>
        <vehicle id="2" x="73.02" y="-1.60" angle="90.00" type="Car01" speed="14.56" pos="73.02" lane="gneE0_0" slope="0.00" acceleration="1.67"/>
        <vehicle id="3" x="32.83" y="-1.60" angle="90.00" type="Car01" speed="9.05" pos="32.83" lane="gneE0_0" slope="0.00" acceleration="1.80"/>
        <vehicle id="4" x="11.70" y="-1.60" angle="90.00" type="Car01" speed="4.42" pos="11.70" lane="gneE0_0" slope="0.00" acceleration="2.23"/>
    </timestep>
    <timestep time="15.00">
        <vehicle id="0" x="235.73" y="-1.60" angle="90.00" type="Car01" speed="29.36" pos="235.73" lane="gneE0_0" slope="0.00" acceleration="2.19"/>
        <vehicle id="1" x="136.59" y="-1.60" angle="90.00" type="Car01" speed="21.10" pos="136.59" lane="gneE0_0" slope="0.00" acceleration="1.52"/>
        <vehicle id="2" x="89.85" y="-1.60" angle="90.00" type="Car01" speed="16.83" pos="89.85" lane="gneE0_0" slope="0.00" acceleration="2.28"/>
        <vehicle id="3" x="43.60" y="-1.60" angle="90.00" type="Car01" speed="10.76" pos="43.60" lane="gneE0_0" slope="0.00" acceleration="1.71"/>
        <vehicle id="4" x="17.43" y="-1.60" angle="90.00" type="Car01" speed="5.73" pos="17.43" lane="gneE0_0" slope="0.00" acceleration="1.31"/>
    </timestep>
    <timestep time="16.00">
        <vehicle id="0" x="266.96" y="-1.60" angle="90.00" type="Car01" speed="31.23" pos="266.96" lane="gneE0_0" slope="0.00" acceleration="1.87"/>
        <vehicle id="1" x="159.96" y="-1.60" angle="90.00" type="Car01" speed="23.37" pos="159.96" lane="gneE0_0" slope="0.00" acceleration="2.27"/>
        <vehicle id="2" x="108.96" y="-1.60" angle="90.00" type="Car01" speed="19.11" pos="108.96" lane="gneE0_0" slope="0.00" acceleration="2.28"/>
        <vehicle id="3" x="56.60" y="-1.60" angle="90.00" type="Car01" speed="13.00" pos="56.60" lane="gneE0_0" slope="0.00" acceleration="2.23"/>
        <vehicle id="4" x="24.57" y="-1.60" angle="90.00" type="Car01" speed="7.14" pos="24.57" lane="gneE0_0" slope="0.00" acceleration="1.41"/>
    </timestep>
    <timestep time="17.00">
        <vehicle id="0" x="297.36" y="-1.60" angle="90.00" type="Car01" speed="30.40" pos="297.36" lane="gneE0_0" slope="0.00" acceleration="-0.83"/>
        <vehicle id="1" x="184.98" y="-1.60" angle="90.00" type="Car01" speed="25.02" pos="184.98" lane="gneE0_0" slope="0.00" acceleration="1.65"/>
        <vehicle id="2" x="129.80" y="-1.60" angle="90.00" type="Car01" speed="20.83" pos="129.80" lane="gneE0_0" slope="0.00" acceleration="1.72"/>
        <vehicle id="3" x="70.92" y="-1.60" angle="90.00" type="Car01" speed="14.33" pos="70.92" lane="gneE0_0" slope="0.00" acceleration="1.33"/>
        <vehicle id="4" x="33.48" y="-1.60" angle="90.00" type="Car01" speed="8.90" pos="33.48" lane="gneE0_0" slope="0.00" acceleration="1.76"/>
    </timestep>
    <timestep time="18.00">
        <vehicle id="0" x="327.85" y="-1.60" angle="90.00" type="Car01" speed="30.50" pos="327.85" lane="gneE0_0" slope="0.00" acceleration="0.10"/>
        <vehicle id="1" x="212.38" y="-1.60" angle="90.00" type="Car01" speed="27.40" pos="212.38" lane="gneE0_0" slope="0.00" acceleration="2.38"/>
        <vehicle id="2" x="152.76" y="-1.60" angle="90.00" type="Car01" speed="22.96" pos="152.76" lane="gneE0_0" slope="0.00" acceleration="2.12"/>
        <vehicle id="3" x="87.48" y="-1.60" angle="90.00" type="Car01" speed="16.55" pos="87.48" lane="gneE0_0" slope="0.00" acceleration="2.22"/>
        <vehicle id="4" x="43.93" y="-1.60" angle="90.00" type="Car01" speed="10.45" pos="43.93" lane="gneE0_0" slope="0.00" acceleration="1.55"/>
    </timestep>
    <timestep time="19.00">
        <vehicle id="0" x="358.77" y="-1.60" angle="90.00" type="Car01" speed="30.92" pos="358.77" lane="gneE0_0" slope="0.00" acceleration="0.42"/>
        <vehicle id="1" x="241.39" y="-1.60" angle="90.00" type="Car01" speed="29.01" pos="241.39" lane="gneE0_0" slope="0.00" acceleration="1.61"/>
        <vehicle id="2" x="177.58" y="-1.60" angle="90.00" type="Car01" speed="24.83" pos="177.58" lane="gneE0_0" slope="0.00" acceleration="1.87"/>
        <vehicle id="3" x="106.09" y="-1.60" angle="90.00" type="Car01" speed="18.61" pos="106.09" lane="gneE0_0" slope="0.00" acceleration="2.06"/>
        <vehicle id="4" x="56.36" y="-1.60" angle="90.00" type="Car01" speed="12.43" pos="56.36" lane="gneE0_0" slope="0.00" acceleration="1.98"/>
    </timestep>
    <timestep time="20.00">
        <vehicle id="0" x="389.87" y="-1.60" angle="90.00" type="Car01" speed="31.09" pos="389.87" lane="gneE0_0" slope="0.00" acceleration="0.18"/>
        <vehicle id="1" x="272.54" y="-1.60" angle="90.00" type="Car01" speed="31.15" pos="272.54" lane="gneE0_0" slope="0.00" acceleration="2.14"/>
        <vehicle id="2" x="204.03" y="-1.60" angle="90.00" type="Car01" speed="26.45" pos="204.03" lane="gneE0_0" slope="0.00" acceleration="1.62"/>
        <vehicle id="3" x="126.47" y="-1.60" angle="90.00" type="Car01" speed="20.38" pos="126.47" lane="gneE0_0" slope="0.00" acceleration="1.77"/>
        <vehicle id="4" x="70.81" y="-1.60" angle="90.00" type="Car01" speed="14.45" pos="70.81" lane="gneE0_0" slope="0.00" acceleration="2.02"/>
    </timestep>
    <timestep time="21.00">
        <vehicle id="0" x="420.55" y="-1.60" angle="90.00" type="Car01" speed="30.69" pos="420.55" lane="gneE0_0" slope="0.00" acceleration="-0.41"/>
        <vehicle id="1" x="303.54" y="-1.60" angle="90.00" type="Car01" speed="31.00" pos="303.54" lane="gneE0_0" slope="0.00" acceleration="-0.15"/>
        <vehicle id="2" x="232.39" y="-1.60" angle="90.00" type="Car01" speed="28.36" pos="232.39" lane="gneE0_0" slope="0.00" acceleration="1.91"/>
        <vehicle id="3" x="148.45" y="-1.60" angle="90.00" type="Car01" speed="21.98" pos="148.45" lane="gneE0_0" slope="0.00" acceleration="1.60"/>
        <vehicle id="4" x="87.09" y="-1.60" angle="90.00" type="Car01" speed="16.29" pos="87.09" lane="gneE0_0" slope="0.00" acceleration="1.83"/>
    </timestep>
    <timestep time="22.00">
        <vehicle id="0" x="451.80" y="-1.60" angle="90.00" type="Car01" speed="31.24" pos="451.80" lane="gneE0_0" slope="0.00" acceleration="0.55"/>
        <vehicle id="1" x="334.80" y="-1.60" angle="90.00" type="Car01" speed="31.26" pos="334.80" lane="gneE0_0" slope="0.00" acceleration="0.26"/>
        <vehicle id="2" x="263.03" y="-1.60" angle="90.00" type="Car01" speed="30.64" pos="263.03" lane="gneE0_0" slope="0.00" acceleration="2.27"/>
        <vehicle id="3" x="172.22" y="-1.60" angle="90.00" type="Car01" speed="23.77" pos="172.22" lane="gneE0_0" slope="0.00" acceleration="1.79"/>
        <vehicle id="4" x="105.19" y="-1.60" angle="90.00" type="Car01" speed="18.10" pos="105.19" lane="gneE0_0" slope="0.00" acceleration="1.81"/>
    </timestep>
    <timestep time="23.00">
        <vehicle id="0" x="482.52" y="-1.60" angle="90.00" type="Car01" speed="30.72" pos="482.52" lane="gneE0_0" slope="0.00" acceleration="-0.52"/>
        <vehicle id="1" x="364.99" y="-1.60" angle="90.00" type="Car01" speed="30.19" pos="364.99" lane="gneE0_0" slope="0.00" acceleration="-1.07"/>
        <vehicle id="2" x="293.06" y="-1.60" angle="90.00" type="Car01" speed="30.03" pos="293.06" lane="gneE0_0" slope="0.00" acceleration="-0.60"/>
        <vehicle id="3" x="197.84" y="-1.60" angle="90.00" type="Car01" speed="25.62" pos="197.84" lane="gneE0_0" slope="0.00" acceleration="1.85"/>
        <vehicle id="4" x="125.40" y="-1.60" angle="90.00" type="Car01" speed="20.21" pos="125.40" lane="gneE0_0" slope="0.00" acceleration="2.11"/>
    </timestep>
    <timestep time="24.00">
        <vehicle id="0" x="512.58" y="-1.60" angle="90.00" type="Car01" speed="30.06" pos="512.58" lane="gneE0_0" slope="0.00" acceleration="-0.66"/>
        <vehicle id="1" x="395.95" y="-1.60" angle="90.00" type="Car01" speed="30.96" pos="395.95" lane="gneE0_0" slope="0.00" acceleration="0.77"/>
        <vehicle id="2" x="323.52" y="-1.60" angle="90.00" type="Car01" speed="30.46" pos="323.52" lane="gneE0_0" slope="0.00" acceleration="0.43"/>
        <vehicle id="3" x="224.94" y="-1.60" angle="90.00" type="Car01" speed="27.10" pos="224.94" lane="gneE0_0" slope="0.00" acceleration="1.48"/>
        <vehicle id="4" x="147.28" y="-1.60" angle="90.00" type="Car01" speed="21.88" pos="147.28" lane="gneE0_0" slope="0.00" acceleration="1.67"/>
    </timestep>
    <timestep time="25.00">
        <vehicle id="0" x="542.75" y="-1.60" angle="90.00" type="Car01" speed="30.17" pos="542.75" lane="gneE0_0" slope="0.00" acceleration="0.12"/>
        <vehicle id="1" x="426.52" y="-1.60" angle="90.00" type="Car01" speed="30.58" pos="426.52" lane="gneE0_0" slope="0.00" acceleration="-0.38"/>
        <vehicle id="2" x="354.68" y="-1.60" angle="90.00" type="Car01" speed="31.16" pos="354.68" lane="gneE0_0" slope="0.00" acceleration="0.71"/>
        <vehicle id="3" x="253.65" y="-1.60" angle="90.00" type="Car01" speed="28.71" pos="253.65" lane="gneE0_0" slope="0.00" acceleration="1.62"/>
        <vehicle id="4" x="171.68" y="-1.60" angle="90.00" type="Car01" speed="24.40" pos="171.68" lane="gneE0_0" slope="0.00" acceleration="2.52"/>
    </timestep>
    <timestep time="26.00">
        <vehicle id="0" x="573.92" y="-1.60" angle="90.00" type="Car01" speed="31.17" pos="573.92" lane="gneE0_0" slope="0.00" acceleration="1.00"/>
        <vehicle id="1" x="456.92" y="-1.60" angle="90.00" type="Car01" speed="30.40" pos="456.92" lane="gneE0_0" slope="0.00" acceleration="-0.18"/>
        <vehicle id="2" x="385.13" y="-1.60" angle="90.00" type="Car01" speed="30.45" pos="385.13" lane="gneE0_0" slope="0.00" acceleration="-0.72"/>
        <vehicle id="3" x="284.36" y="-1.60" angle="90.00" type="Car01" speed="30.71" pos="284.36" lane="gneE0_0" slope="0.00" acceleration="1.99"/>
        <vehicle id="4" x="197.46" y="-1.60" angle="90.00" type="Car01" speed="25.78" pos="197.46" lane="gneE0_0" slope="0.00" acceleration="1.38"/>
    </timestep>
    <timestep time="27.00">
        <vehicle id="0" x="604.04" y="-1.60" angle="90.00" type="Car01" speed="30.12" pos="604.04" lane="gneE0_0" slope="0.00" acceleration="-1.05"/>
        <vehicle id="1" x="488.16" y="-1.60" angle="90.00" type="Car01" speed="31.24" pos="488.16" lane="gneE0_0" slope="0.00" acceleration="0.84"/>
        <vehicle id="2" x="415.77" y="-1.60" angle="90.00" type="Car01" speed="30.64" pos="415.77" lane="gneE0_0" slope="0.00" acceleration="0.20"/>
        <vehicle id="3" x="314.74" y="-1.60" angle="90.00" type="Car01" speed="30.39" pos="314.74" lane="gneE0_0" slope="0.00" acceleration="-0.32"/>
        <vehicle id="4" x="225.19" y="-1.60" angle="90.00" type="Car01" speed="27.73" pos="225.19" lane="gneE0_0" slope="0.00" acceleration="1.95"/>
    </timestep>
    <timestep time="28.00">
        <vehicle id="0" x="635.00" y="-1.60" angle="90.00" type="Car01" speed="30.96" pos="635.00" lane="gneE0_0" slope="0.00" acceleration="0.84"/>
        <vehicle id="1" x="518.89" y="-1.60" angle="90.00" type="Car01" speed="30.73" pos="518.89" lane="gneE0_0" slope="0.00" acceleration="-0.51"/>
        <vehicle id="2" x="446.86" y="-1.60" angle="90.00" type="Car01" speed="31.09" pos="446.86" lane="gneE0_0" slope="0.00" acceleration="0.45"/>
        <vehicle id="3" x="344.83" y="-1.60" angle="90.00" type="Car01" speed="30.08" pos="344.83" lane="gneE0_0" slope="0.00" acceleration="-0.30"/>
        <vehicle id="4" x="254.30" y="-1.60" angle="90.00" type="Car01" speed="29.11" pos="254.30" lane="gneE0_0" slope="0.00" acceleration="1.38"/>
    </timestep>
    <timestep time="29.00">
        <vehicle id="0" x="665.97" y="-1.60" angle="90.00" type="Car01" speed="30.96" pos="665.97" lane="gneE0_0" slope="0.00" acceleration="0.00"/>
        <vehicle id="1" x="548.94" y="-1.60" angle="90.00" type="Car01" speed="30.05" pos="548.94" lane="gneE0_0" slope="0.00" acceleration="-0.68"/>
        <vehicle id="2" x="477.88" y="-1.60" angle="90.00" type="Car01" speed="31.02" pos="477.88" lane="gneE0_0" slope="0.00" acceleration="-0.07"/>
        <vehicle id="3" x="375.46" y="-1.60" angle="90.00" type="Car01" speed="30.63" pos="375.46" lane="gneE0_0" slope="0.00" acceleration="0.55"/>
        <vehicle id="4" x="284.88" y="-1.60" angle="90.00" type="Car01" speed="30.58" pos="284.88" lane="gneE0_0" slope="0.00" acceleration="1.47"/>
    </timestep>
    <timestep time="30.00">
        <vehicle id="0" x="697.08" y="-1.60" angle="90.00" type="Car01" speed="31.12" pos="697.08" lane="gneE0_0" slope="0.00" acceleration="0.15"/>
        <vehicle id="1" x="579.87" y="-1.60" angle="90.00" type="Car01" speed="30.93" pos="579.87" lane="gneE0_0" slope="0.00" acceleration="0.88"/>
        <vehicle id="2" x="508.24" y="-1.60" angle="90.00" type="Car01" speed="30.36" pos="508.24" lane="gneE0_0" slope="0.00" acceleration="-0.67"/>
        <vehicle id="3" x="406.51" y="-1.60" angle="90.00" type="Car01" speed="31.05" pos="406.51" lane="gneE0_0" slope="0.00" acceleration="0.41"/>
        <vehicle id="4" x="315.80" y="-1.60" angle="90.00" type="Car01" speed="30.92" pos="315.80" lane="gneE0_0" slope="0.00" acceleration="0.34"/>
    </timestep>
    <timestep time="31.00">
        <vehicle id="0" x="728.36" y="-1.60" angle="90.00" type="Car01" speed="31.28" pos="728.36" lane="gneE0_0" slope="0.00" acceleration="0.16"/>
        <vehicle id="1" x="610.14" y="-1.60" angle="90.00" type="Car01" speed="30.27" pos="610.14" lane="gneE0_0" slope="0.00" acceleration="-0.66"/>
        <vehicle id="2" x="538.73" y="-1.60" angle="90.00" type="Car01" speed="30.49" pos="538.73" lane="gneE0_0" slope="0.00" acceleration="0.13"/>
        <vehicle id="3" x="437.20" y="-1.60" angle="90.00" type="Car01" speed="30.69" pos="437.20" lane="gneE0_0" slope="0.00" acceleration="-0.36"/>
        <vehicle id="4" x="346.06" y="-1.60" angle="90.00" type="Car01" speed="30.26" pos="346.06" lane="gneE0_0" slope="0.00" acceleration="-0.67"/>
    </timestep>
    <timestep time="32.00">
        <vehicle id="0" x="759.61" y="-1.60" angle="90.00" type="Car01" speed="31.25" pos="759.61" lane="gneE0_0" slope="0.00" acceleration="-0.03"/>
        <vehicle id="1" x="640.35" y="-1.60" angle="90.00" type="Car01" speed="30.21" pos="640.35" lane="gneE0_0" slope="0.00" acceleration="-0.06"/>
        <vehicle id="2" x="569.57" y="-1.60" angle="90.00" type="Car01" speed="30.84" pos="569.57" lane="gneE0_0" slope="0.00" acceleration="0.35"/>
        <vehicle id="3" x="467.72" y="-1.60" angle="90.00" type="Car01" speed="30.53" pos="467.72" lane="gneE0_0" slope="0.00" acceleration="-0.16"/>
        <vehicle id="4" x="377.11" y="-1.60" angle="90.00" type="Car01" speed="31.05" pos="377.11" lane="gneE0_0" slope="0.00" acceleration="0.80"/>
    </timestep>
    <timestep time="33.00">
        <vehicle id="0" x="790.58" y="-1.60" angle="90.00" type="Car01" speed="30.97" pos="790.58" lane="gneE0_0" slope="0.00" acceleration="-0.28"/>
        <vehicle id="1" x="670.93" y="-1.60" angle="90.00" type="Car01" speed="30.58" pos="670.93" lane="gneE0_0" slope="0.00" acceleration="0.37"/>
        <vehicle id="2" x="599.73" y="-1.60" angle="90.00" type="Car01" speed="30.16" pos="599.73" lane="gneE0_0" slope="0.00" acceleration="-0.68"/>
        <vehicle id="3" x="498.87" y="-1.60" angle="90.00" type="Car01" speed="31.15" pos="498.87" lane="gneE0_0" slope="0.00" acceleration="0.62"/>
        <vehicle id="4" x="407.59" y="-1.60" angle="90.00" type="Car01" speed="30.48" pos="407.59" lane="gneE0_0" slope="0.00" acceleration="-0.58"/>
    </timestep>
    <timestep time="34.00">
        <vehicle id="0" x="820.84" y="-1.60" angle="90.00" type="Car01" speed="30.27" pos="820.84" lane="gneE0_0" slope="0.00" acceleration="-0.70"/>
        <vehicle id="1" x="700.94" y="-1.60" angle="90.00" type="Car01" speed="30.01" pos="700.94" lane="gneE0_0" slope="0.00" acceleration="-0.57"/>
        <vehicle id="2" x="630.03" y="-1.60" angle="90.00" type="Car01" speed="30.30" pos="630.03" lane="gneE0_0" slope="0.00" acceleration="0.14"/>
        <vehicle id="3" x="529.86" y="-1.60" angle="90.00" type="Car01" speed="31.00" pos="529.86" lane="gneE0_0" slope="0.00" acceleration="-0.15"/>
        <vehicle id="4" x="437.94" y="-1.60" angle="90.00" type="Car01" speed="30.35" pos="437.94" lane="gneE0_0" slope="0.00" acceleration="-0.12"/>
    </timestep>
    <timestep time="35.00">
        <vehicle id="0" x="851.21" y="-1.60" angle="90.00" type="Car01" speed="30.37" pos="851.21" lane="gneE0_0" slope="0.00" acceleration="0.10"/>
        <vehicle id="1" x="731.79" y="-1.60" angle="90.00" type="Car01" speed="30.84" pos="731.79" lane="gneE0_0" slope="0.00" acceleration="0.83"/>
        <vehicle id="2" x="660.92" y="-1.60" angle="90.00" type="Car01" speed="30.89" pos="660.92" lane="gneE0_0" slope="0.00" acceleration="0.58"/>
        <vehicle id="3" x="560.37" y="-1.60" angle="90.00" type="Car01" speed="30.50" pos="560.37" lane="gneE0_0" slope="0.00" acceleration="-0.49"/>
        <vehicle id="4" x="468.22" y="-1.60" angle="90.00" type="Car01" speed="30.29" pos="468.22" lane="gneE0_0" slope="0.00" acceleration="-0.06"/>
    </timestep>
    <timestep time="36.00">
        <vehicle id="0" x="881.67" y="-1.60" angle="90.00" type="Car01" speed="30.47" pos="881.67" lane="gneE0_0" slope="0.00" acceleration="0.10"/>
        <vehicle id="1" x="761.98" y="-1.60" angle="90.00" type="Car01" speed="30.19" pos="761.98" lane="gneE0_0" slope="0.00" acceleration="-0.65"/>
        <vehicle id="2" x="691.88" y="-1.60" angle="90.00" type="Car01" speed="30.96" pos="691.88" lane="gneE0_0" slope="0.00" acceleration="0.07"/>
        <vehicle id="3" x="590.64" y="-1.60" angle="90.00" type="Car01" speed="30.27" pos="590.64" lane="gneE0_0" slope="0.00" acceleration="-0.24"/>
        <vehicle id="4" x="498.90" y="-1.60" angle="90.00" type="Car01" speed="30.68" pos="498.90" lane="gneE0_0" slope="0.00" acceleration="0.39"/>
    </timestep>
    <timestep time="37.00">
        <vehicle id="0" x="912.23" y="-1.60" angle="90.00" type="Car01" speed="30.55" pos="912.23" lane="gneE0_0" slope="0.00" acceleration="0.09"/>
        <vehicle id="1" x="791.99" y="-1.60" angle="90.00" type="Car01" speed="30.01" pos="791.99" lane="gneE0_0" slope="0.00" acceleration="-0.18"/>
        <vehicle id="2" x="723.15" y="-1.60" angle="90.00" type="Car01" speed="31.28" pos="723.15" lane="gneE0_0" slope="0.00" acceleration="0.32"/>
        <vehicle id="3" x="621.92" y="-1.60" angle="90.00" type="Car01" speed="31.29" pos="621.92" lane="gneE0_0" slope="0.00" acceleration="1.02"/>
        <vehicle id="4" x="529.81" y="-1.60" angle="90.00" type="Car01" speed="30.91" pos="529.81" lane="gneE0_0" slope="0.00" acceleration="0.23"/>
    </timestep>
    <timestep time="38.00">
        <vehicle id="0" x="942.83" y="-1.60" angle="90.00" type="Car01" speed="30.61" pos="942.83" lane="gneE0_0" slope="0.00" acceleration="0.05"/>
        <vehicle id="1" x="822.24" y="-1.60" angle="90.00" type="Car01" speed="30.25" pos="822.24" lane="gneE0_0" slope="0.00" acceleration="0.24"/>
        <vehicle id="2" x="753.50" y="-1.60" angle="90.00" type="Car01" speed="30.34" pos="753.50" lane="gneE0_0" slope="0.00" acceleration="-0.93"/>
        <vehicle id="3" x="652.78" y="-1.60" angle="90.00" type="Car01" speed="30.86" pos="652.78" lane="gneE0_0" slope="0.00" acceleration="-0.43"/>
        <vehicle id="4" x="560.28" y="-1.60" angle="90.00" type="Car01" speed="30.47" pos="560.28" lane="gneE0_0" slope="0.00" acceleration="-0.44"/>
    </timestep>
    <timestep time="39.00">
        <vehicle id="0" x="973.75" y="-1.60" angle="90.00" type="Car01" speed="30.92" pos="973.75" lane="gneE0_0" slope="0.00" acceleration="0.31"/>
        <vehicle id="1" x="853.16" y="-1.60" angle="90.00" type="Car01" speed="30.92" pos="853.16" lane="gneE0_0" slope="0.00" acceleration="0.66"/>
        <vehicle id="2" x="784.38" y="-1.60" angle="90.00" type="Car01" speed="30.88" pos="784.38" lane="gneE0_0" slope="0.00" acceleration="0.54"/>
        <vehicle id="3" x="683.60" y="-1.60" angle="90.00" type="Car01" speed="30.82" pos="683.60" lane="gneE0_0" slope="0.00" acceleration="-0.04"/>
        <vehicle id="4" x="590.99" y="-1.60" angle="90.00" type="Car01" speed="30.71" pos="590.99" lane="gneE0_0" slope="0.00" acceleration="0.23"/>
    </timestep>
    <timestep time="40.00">
        <vehicle id="0" x="1004.89" y="-1.60" angle="90.00" type="Car01" speed="31.14" pos="1004.89" lane="gneE0_0" slope="0.00" acceleration="0.22"/>
        <vehicle id="1" x="883.38" y="-1.60" angle="90.00" type="Car01" speed="30.22" pos="883.38" lane="gneE0_0" slope="0.00" acceleration="-0.69"/>
        <vehicle id="2" x="815.23" y="-1.60" angle="90.00" type="Car01" speed="30.85" pos="815.23" lane="gneE0_0" slope="0.00" acceleration="-0.04"/>
        <vehicle id="3" x="713.86" y="-1.60" angle="90.00" type="Car01" speed="30.26" pos="713.86" lane="gneE0_0" slope="0.00" acceleration="-0.56"/>
        <vehicle id="4" x="621.14" y="-1.60" angle="90.00" type="Car01" speed="30.16" pos="621.14" lane="gneE0_0" slope="0.00" acceleration="-0.55"/>
    </timestep>
    <timestep time="41.00">
        <vehicle id="0" x="1035.01" y="-1.60" angle="90.00" type="Car01" speed="30.12" pos="1035.01" lane="gneE0_0" slope="0.00" acceleration="-1.02"/>
        <vehicle id="1" x="913.78" y="-1.60" angle="90.00" type="Car01" speed="30.40" pos="913.78" lane="gneE0_0" slope="0.00" acceleration="0.18"/>
        <vehicle id="2" x="846.33" y="-1.60" angle="90.00" type="Car01" speed="31.10" pos="846.33" lane="gneE0_0" slope="0.00" acceleration="0.25"/>
        <vehicle id="3" x="744.40" y="-1.60" angle="90.00" type="Car01" speed="30.54" pos="744.40" lane="gneE0_0" slope="0.00" acceleration="0.27"/>
        <vehicle id="4" x="651.81" y="-1.60" angle="90.00" type="Car01" speed="30.66" pos="651.81" lane="gneE0_0" slope="0.00" acceleration="0.51"/>
    </timestep>
    <timestep time="42.00">
        <vehicle id="0" x="1065.35" y="-1.60" angle="90.00" type="Car01" speed="30.35" pos="1065.35" lane="gneE0_0" slope="0.00" acceleration="0.23"/>