<?xml version="1.0" encoding="UTF-8"?>

<!-- generated on 10/26/22 20:24:51 by Eclipse SUMO GUI Version 1.8.0
<configuration xmlns:xsi="http://www.w3.org/2001/XMLSchema-instance" xsi:noNamespaceSchemaLocation="http://sumo.dlr.de/xsd/sumoConfiguration.xsd">

    <input>
        <net-file value="cacc_Single_Lane_full.net.xml"/>
        <route-files value="20221026_cacc_Single_Lane_tripInfo\000.rou.xml"/>
        <additional-files value="20221026_cacc_Single_Lane_tripInfo\000.add.xml"/>
    </input>

    <output>
        <fcd-output value="20221026_cacc_Single_Lane_tripInfo\000_fcdout.xml"/>
        <fcd-output.acceleration value="true"/>
        <tripinfo-output value="20221026_cacc_Single_Lane_tripInfo\000_tripinfo.xml"/>
    </output>

    <time>
        <begin value="0"/>
        <end value="10000"/>
    </time>

    <processing>
        <time-to-teleport value="-1"/>
    </processing>

    <ssm_device>
        <device.ssm.probability value="1"/>
        <device.ssm.file value="20221026_cacc_Single_Lane_tripInfo\000_ssm.xml"/>
    </ssm_device>

    <traci_server>
        <remote-port value="58123"/>
    </traci_server>

</configuration>
-->

<tripinfos xmlns:xsi="http://www.w3.org/2001/XMLSchema-instance" xsi:noNamespaceSchemaLocation="http://sumo.dlr.de/xsd/tripinfo_file.xsd">
    <tripinfo id="0" depart="0.00" departLane="e0_0" departPos="5.10" departSpeed="0.00" departDelay="0.00" arrival="155.00" arrivalLane="e2_0" arrivalPos="1000.00" arrivalSpeed="33.53" duration="155.00" routeLength="4604.44" waitingTime="1.00" waitingCount="1" stopTime="0.00" timeLoss="17.40" rerouteNo="0" devices="tripinfo_0 ssm_0 fcd_0" vType="Car" speedFactor="1.06" vaporized=""/>
    <tripinfo id="1" depart="2.00" departLane="e0_0" departPos="5.10" departSpeed="0.00" departDelay="2.00" arrival="162.00" arrivalLane="e2_0" arrivalPos="1000.00" arrivalSpeed="31.46" duration="160.00" routeLength="4604.44" waitingTime="0.00" waitingCount="0" stopTime="0.00" timeLoss="13.51" rerouteNo="0" devices="tripinfo_1 ssm_1 fcd_1" vType="Car" speedFactor="0.94" vaporized=""/>
    <tripinfo id="2" depart="5.00" departLane="e0_0" departPos="5.10" departSpeed="0.00" departDelay="5.00" arrival="164.00" arrivalLane="e2_0" arrivalPos="1000.00" arrivalSpeed="33.53" duration="159.00" routeLength="4604.44" waitingTime="0.00" waitingCount="0" stopTime="0.00" timeLoss="20.78" rerouteNo="0" devices="tripinfo_2 ssm_2 fcd_2" vType="Car" speedFactor="1.01" vaporized=""/>
    <tripinfo id="3" depart="7.00" departLane="e0_0" departPos="5.10" departSpeed="0.00" departDelay="7.00" arrival="165.00" arrivalLane="e2_0" arrivalPos="1000.00" arrivalSpeed="33.53" duration="158.00" routeLength="4604.44" waitingTime="0.00" waitingCount="0" stopTime="0.00" timeLoss="20.13" rerouteNo="0" devices="tripinfo_3 ssm_3 fcd_3" vType="Car" speedFactor="1.08" vaporized=""/>
    <tripinfo id="4" depart="10.00" departLane="e0_0" departPos="5.10" departSpeed="0.00" departDelay="10.00" arrival="166.00" arrivalLane="e2_0" arrivalPos="1000.00" arrivalSpeed="33.53" duration="156.00" routeLength="4604.44" waitingTime="1.00" waitingCount="1" stopTime="0.00" timeLoss="18.51" rerouteNo="0" devices="tripinfo_4 ssm_4 fcd_4" vType="Car" speedFactor="1.03" vaporized=""/>
</tripinfos>
