<?xml version="1.0" encoding="UTF-8"?>

<!-- generated on 12/15/22 20:40:06 by Eclipse SUMO GUI Version 1.8.0
<configuration xmlns:xsi="http://www.w3.org/2001/XMLSchema-instance" xsi:noNamespaceSchemaLocation="http://sumo.dlr.de/xsd/sumoConfiguration.xsd">

    <input>
        <net-file value="cacc_Single_Lane_full.net.xml"/>
        <route-files value="cacc_Single_Lane.rou.xml"/>
        <additional-files value="cacc_Single_Lane.add.xml"/>
    </input>

    <output>
        <fcd-output value="./results/20221215_cacc_Single_Lane_tripInfo\001_fcdout.xml"/>
        <fcd-output.acceleration value="true"/>
        <tripinfo-output value="./results/20221215_cacc_Single_Lane_tripInfo\001_tripinfo.xml"/>
    </output>

    <time>
        <begin value="0"/>
        <end value="10000"/>
    </time>

    <processing>
        <time-to-teleport value="-1"/>
    </processing>

    <ssm_device>
        <device.ssm.probability value="1"/>
        <device.ssm.file value="./results/20221215_cacc_Single_Lane_tripInfo\001_ssm.xml"/>
    </ssm_device>

    <traci_server>
        <remote-port value="49163"/>
    </traci_server>

</configuration>
-->

<tripinfos xmlns:xsi="http://www.w3.org/2001/XMLSchema-instance" xsi:noNamespaceSchemaLocation="http://sumo.dlr.de/xsd/tripinfo_file.xsd">
</tripinfos>
