<?xml version="1.0" encoding="UTF-8"?>

<!-- generated on 10/26/22 20:27:28 by Eclipse SUMO GUI Version 1.8.0
<configuration xmlns:xsi="http://www.w3.org/2001/XMLSchema-instance" xsi:noNamespaceSchemaLocation="http://sumo.dlr.de/xsd/sumoConfiguration.xsd">

    <input>
        <net-file value="cacc_Single_Lane_full.net.xml"/>
        <route-files value="20221026_cacc_Single_Lane_tripInfo\001.rou.xml"/>
        <additional-files value="20221026_cacc_Single_Lane_tripInfo\001.add.xml"/>
    </input>

    <output>
        <fcd-output value="20221026_cacc_Single_Lane_tripInfo\001_fcdout.xml"/>
        <fcd-output.acceleration value="true"/>
        <tripinfo-output value="20221026_cacc_Single_Lane_tripInfo\001_tripinfo.xml"/>
    </output>

    <time>
        <begin value="0"/>
        <end value="10000"/>
    </time>

    <processing>
        <time-to-teleport value="-1"/>
    </processing>

    <ssm_device>
        <device.ssm.probability value="1"/>
        <device.ssm.file value="20221026_cacc_Single_Lane_tripInfo\001_ssm.xml"/>
    </ssm_device>

    <traci_server>
        <remote-port value="58166"/>
    </traci_server>

</configuration>
-->

<fcd-export xmlns:xsi="http://www.w3.org/2001/XMLSchema-instance" xsi:noNamespaceSchemaLocation="http://sumo.dlr.de/xsd/fcd_file.xsd">
    <timestep time="0.00">
        <vehicle id="0" x="5.10" y="-1.60" angle="90.00" type="Car" speed="0.00" pos="5.10" lane="e0_0" slope="0.00" acceleration="0.00"/>
    </timestep>
    <timestep time="1.00">
        <vehicle id="0" x="7.70" y="-1.60" angle="90.00" type="Car" speed="2.60" pos="7.70" lane="e0_0" slope="0.00" acceleration="2.60"/>
    </timestep>
    <timestep time="2.00">
        <vehicle id="0" x="12.90" y="-1.60" angle="90.00" type="Car" speed="5.20" pos="12.90" lane="e0_0" slope="0.00" acceleration="2.60"/>
        <vehicle id="1" x="5.10" y="-1.60" angle="90.00" type="Car" speed="0.00" pos="5.10" lane="e0_0" slope="0.00" acceleration="0.00"/>
    </timestep>
    <timestep time="3.00">
        <vehicle id="0" x="20.70" y="-1.60" angle="90.00" type="Car" speed="7.80" pos="20.70" lane="e0_0" slope="0.00" acceleration="2.60"/>
        <vehicle id="1" x="6.40" y="-1.60" angle="90.00" type="Car" speed="1.30" pos="6.40" lane="e0_0" slope="0.00" acceleration="1.30"/>
    </timestep>
    <timestep time="4.00">
        <vehicle id="0" x="31.10" y="-1.60" angle="90.00" type="Car" speed="10.40" pos="31.10" lane="e0_0" slope="0.00" acceleration="2.60"/>
        <vehicle id="1" x="10.30" y="-1.60" angle="90.00" type="Car" speed="3.90" pos="10.30" lane="e0_0" slope="0.00" acceleration="2.60"/>
    </timestep>
    <timestep time="5.00">
        <vehicle id="0" x="44.10" y="-1.60" angle="90.00" type="Car" speed="13.00" pos="44.10" lane="e0_0" slope="0.00" acceleration="2.60"/>
        <vehicle id="1" x="16.80" y="-1.60" angle="90.00" type="Car" speed="6.50" pos="16.80" lane="e0_0" slope="0.00" acceleration="2.60"/>
        <vehicle id="2" x="5.10" y="-1.60" angle="90.00" type="Car" speed="0.00" pos="5.10" lane="e0_0" slope="0.00" acceleration="0.00"/>
    </timestep>
    <timestep time="6.00">
        <vehicle id="0" x="59.70" y="-1.60" angle="90.00" type="Car" speed="15.60" pos="59.70" lane="e0_0" slope="0.00" acceleration="2.60"/>
        <vehicle id="1" x="25.90" y="-1.60" angle="90.00" type="Car" speed="9.10" pos="25.90" lane="e0_0" slope="0.00" acceleration="2.60"/>
        <vehicle id="2" x="7.70" y="-1.60" angle="90.00" type="Car" speed="2.60" pos="7.70" lane="e0_0" slope="0.00" acceleration="2.60"/>
    </timestep>
    <timestep time="7.00">
        <vehicle id="0" x="77.90" y="-1.60" angle="90.00" type="Car" speed="18.20" pos="77.90" lane="e0_0" slope="0.00" acceleration="2.60"/>
        <vehicle id="1" x="37.59" y="-1.60" angle="90.00" type="Car" speed="11.70" pos="37.59" lane="e0_0" slope="0.00" acceleration="2.60"/>
        <vehicle id="2" x="12.90" y="-1.60" angle="90.00" type="Car" speed="5.20" pos="12.90" lane="e0_0" slope="0.00" acceleration="2.60"/>
        <vehicle id="3" x="5.10" y="-1.60" angle="90.00" type="Car" speed="0.00" pos="5.10" lane="e0_0" slope="0.00" acceleration="0.00"/>
    </timestep>
    <timestep time="8.00">
        <vehicle id="0" x="98.70" y="-1.60" angle="90.00" type="Car" speed="20.80" pos="98.70" lane="e0_0" slope="0.00" acceleration="2.60"/>
        <vehicle id="1" x="51.89" y="-1.60" angle="90.00" type="Car" speed="14.30" pos="51.89" lane="e0_0" slope="0.00" acceleration="2.60"/>
        <vehicle id="2" x="20.70" y="-1.60" angle="90.00" type="Car" speed="7.80" pos="20.70" lane="e0_0" slope="0.00" acceleration="2.60"/>
        <vehicle id="3" x="6.40" y="-1.60" angle="90.00" type="Car" speed="1.30" pos="6.40" lane="e0_0" slope="0.00" acceleration="1.30"/>
    </timestep>
    <timestep time="9.00">
        <vehicle id="0" x="122.10" y="-1.60" angle="90.00" type="Car" speed="23.40" pos="122.10" lane="e0_0" slope="0.00" acceleration="2.60"/>
        <vehicle id="1" x="68.79" y="-1.60" angle="90.00" type="Car" speed="16.90" pos="68.79" lane="e0_0" slope="0.00" acceleration="2.60"/>
        <vehicle id="2" x="31.10" y="-1.60" angle="90.00" type="Car" speed="10.40" pos="31.10" lane="e0_0" slope="0.00" acceleration="2.60"/>
        <vehicle id="3" x="10.30" y="-1.60" angle="90.00" type="Car" speed="3.90" pos="10.30" lane="e0_0" slope="0.00" acceleration="2.60"/>
    </timestep>
    <timestep time="10.00">
        <vehicle id="0" x="148.10" y="-1.60" angle="90.00" type="Car" speed="26.00" pos="148.10" lane="e0_0" slope="0.00" acceleration="2.60"/>
        <vehicle id="1" x="88.29" y="-1.60" angle="90.00" type="Car" speed="19.50" pos="88.29" lane="e0_0" slope="0.00" acceleration="2.60"/>
        <vehicle id="2" x="44.10" y="-1.60" angle="90.00" type="Car" speed="13.00" pos="44.10" lane="e0_0" slope="0.00" acceleration="2.60"/>
        <vehicle id="3" x="16.80" y="-1.60" angle="90.00" type="Car" speed="6.50" pos="16.80" lane="e0_0" slope="0.00" acceleration="2.60"/>
        <vehicle id="4" x="5.10" y="-1.60" angle="90.00" type="Car" speed="0.00" pos="5.10" lane="e0_0" slope="0.00" acceleration="0.00"/>
    </timestep>
    <timestep time="11.00">
        <vehicle id="0" x="176.70" y="-1.60" angle="90.00" type="Car" speed="28.60" pos="176.70" lane="e0_0" slope="0.00" acceleration="2.60"/>
        <vehicle id="1" x="110.39" y="-1.60" angle="90.00" type="Car" speed="22.10" pos="110.39" lane="e0_0" slope="0.00" acceleration="2.60"/>
        <vehicle id="2" x="59.70" y="-1.60" angle="90.00" type="Car" speed="15.60" pos="59.70" lane="e0_0" slope="0.00" acceleration="2.60"/>
        <vehicle id="3" x="25.90" y="-1.60" angle="90.00" type="Car" speed="9.10" pos="25.90" lane="e0_0" slope="0.00" acceleration="2.60"/>
        <vehicle id="4" x="7.70" y="-1.60" angle="90.00" type="Car" speed="2.60" pos="7.70" lane="e0_0" slope="0.00" acceleration="2.60"/>
    </timestep>
    <timestep time="12.00">
        <vehicle id="0" x="207.90" y="-1.60" angle="90.00" type="Car" speed="31.20" pos="207.90" lane="e0_0" slope="0.00" acceleration="2.60"/>
        <vehicle id="1" x="135.09" y="-1.60" angle="90.00" type="Car" speed="24.70" pos="135.09" lane="e0_0" slope="0.00" acceleration="2.60"/>
        <vehicle id="2" x="77.90" y="-1.60" angle="90.00" type="Car" speed="18.20" pos="77.90" lane="e0_0" slope="0.00" acceleration="2.60"/>
        <vehicle id="3" x="37.59" y="-1.60" angle="90.00" type="Car" speed="11.70" pos="37.59" lane="e0_0" slope="0.00" acceleration="2.60"/>
        <vehicle id="4" x="12.90" y="-1.60" angle="90.00" type="Car" speed="5.20" pos="12.90" lane="e0_0" slope="0.00" acceleration="2.60"/>
    </timestep>
    <timestep time="13.00">
        <vehicle id="0" x="241.43" y="-1.60" angle="90.00" type="Car" speed="33.53" pos="241.43" lane="e0_0" slope="0.00" acceleration="2.33"/>
        <vehicle id="1" x="162.39" y="-1.60" angle="90.00" type="Car" speed="27.30" pos="162.39" lane="e0_0" slope="0.00" acceleration="2.60"/>
        <vehicle id="2" x="98.70" y="-1.60" angle="90.00" type="Car" speed="20.80" pos="98.70" lane="e0_0" slope="0.00" acceleration="2.60"/>
        <vehicle id="3" x="51.89" y="-1.60" angle="90.00" type="Car" speed="14.30" pos="51.89" lane="e0_0" slope="0.00" acceleration="2.60"/>
        <vehicle id="4" x="20.70" y="-1.60" angle="90.00" type="Car" speed="7.80" pos="20.70" lane="e0_0" slope="0.00" acceleration="2.60"/>
    </timestep>
    <timestep time="14.00">
        <vehicle id="0" x="274.96" y="-1.60" angle="90.00" type="Car" speed="33.53" pos="274.96" lane="e0_0" slope="0.00" acceleration="0.00"/>
        <vehicle id="1" x="191.35" y="-1.60" angle="90.00" type="Car" speed="28.96" pos="191.35" lane="e0_0" slope="0.00" acceleration="1.66"/>
        <vehicle id="2" x="122.10" y="-1.60" angle="90.00" type="Car" speed="23.40" pos="122.10" lane="e0_0" slope="0.00" acceleration="2.60"/>
        <vehicle id="3" x="68.79" y="-1.60" angle="90.00" type="Car" speed="16.90" pos="68.79" lane="e0_0" slope="0.00" acceleration="2.60"/>
        <vehicle id="4" x="31.10" y="-1.60" angle="90.00" type="Car" speed="10.40" pos="31.10" lane="e0_0" slope="0.00" acceleration="2.60"/>
    </timestep>
    <timestep time="15.00">
        <vehicle id="0" x="308.48" y="-1.60" angle="90.00" type="Car" speed="33.53" pos="308.48" lane="e0_0" slope="0.00" acceleration="0.00"/>
        <vehicle id="1" x="221.32" y="-1.60" angle="90.00" type="Car" speed="29.96" pos="221.32" lane="e0_0" slope="0.00" acceleration="1.00"/>
        <vehicle id="2" x="148.10" y="-1.60" angle="90.00" type="Car" speed="26.00" pos="148.10" lane="e0_0" slope="0.00" acceleration="2.60"/>
        <vehicle id="3" x="88.29" y="-1.60" angle="90.00" type="Car" speed="19.50" pos="88.29" lane="e0_0" slope="0.00" acceleration="2.60"/>
        <vehicle id="4" x="44.10" y="-1.60" angle="90.00" type="Car" speed="13.00" pos="44.10" lane="e0_0" slope="0.00" acceleration="2.60"/>
    </timestep>
    <timestep time="16.00">
        <vehicle id="0" x="342.01" y="-1.60" angle="90.00" type="Car" speed="33.53" pos="342.01" lane="e0_0" slope="0.00" acceleration="0.00"/>
        <vehicle id="1" x="251.88" y="-1.60" angle="90.00" type="Car" speed="30.56" pos="251.88" lane="e0_0" slope="0.00" acceleration="0.60"/>
        <vehicle id="2" x="176.70" y="-1.60" angle="90.00" type="Car" speed="28.60" pos="176.70" lane="e0_0" slope="0.00" acceleration="2.60"/>
        <vehicle id="3" x="110.39" y="-1.60" angle="90.00" type="Car" speed="22.10" pos="110.39" lane="e0_0" slope="0.00" acceleration="2.60"/>
        <vehicle id="4" x="59.70" y="-1.60" angle="90.00" type="Car" speed="15.60" pos="59.70" lane="e0_0" slope="0.00" acceleration="2.60"/>
    </timestep>
    <timestep time="17.00">
        <vehicle id="0" x="375.54" y="-1.60" angle="90.00" type="Car" speed="33.53" pos="375.54" lane="e0_0" slope="0.00" acceleration="0.00"/>
        <vehicle id="1" x="282.80" y="-1.60" angle="90.00" type="Car" speed="30.92" pos="282.80" lane="e0_0" slope="0.00" acceleration="0.36"/>
        <vehicle id="2" x="207.27" y="-1.60" angle="90.00" type="Car" speed="30.57" pos="207.27" lane="e0_0" slope="0.00" acceleration="1.97"/>
        <vehicle id="3" x="135.09" y="-1.60" angle="90.00" type="Car" speed="24.70" pos="135.09" lane="e0_0" slope="0.00" acceleration="2.60"/>
        <vehicle id="4" x="77.90" y="-1.60" angle="90.00" type="Car" speed="18.20" pos="77.90" lane="e0_0" slope="0.00" acceleration="2.60"/>
    </timestep>
    <timestep time="18.00">
        <vehicle id="0" x="409.07" y="-1.60" angle="90.00" type="Car" speed="33.53" pos="409.07" lane="e0_0" slope="0.00" acceleration="0.00"/>
        <vehicle id="1" x="313.94" y="-1.60" angle="90.00" type="Car" speed="31.14" pos="313.94" lane="e0_0" slope="0.00" acceleration="0.22"/>
        <vehicle id="2" x="239.03" y="-1.60" angle="90.00" type="Car" speed="31.75" pos="239.03" lane="e0_0" slope="0.00" acceleration="1.18"/>
        <vehicle id="3" x="162.39" y="-1.60" angle="90.00" type="Car" speed="27.30" pos="162.39" lane="e0_0" slope="0.00" acceleration="2.60"/>
        <vehicle id="4" x="98.70" y="-1.60" angle="90.00" type="Car" speed="20.80" pos="98.70" lane="e0_0" slope="0.00" acceleration="2.60"/>
    </timestep>
    <timestep time="19.00">
        <vehicle id="0" x="442.60" y="-1.60" angle="90.00" type="Car" speed="33.53" pos="442.60" lane="e0_0" slope="0.00" acceleration="0.00"/>
        <vehicle id="1" x="345.21" y="-1.60" angle="90.00" type="Car" speed="31.27" pos="345.21" lane="e0_0" slope="0.00" acceleration="0.13"/>
        <vehicle id="2" x="271.49" y="-1.60" angle="90.00" type="Car" speed="32.46" pos="271.49" lane="e0_0" slope="0.00" acceleration="0.71"/>
        <vehicle id="3" x="192.18" y="-1.60" angle="90.00" type="Car" speed="29.79" pos="192.18" lane="e0_0" slope="0.00" acceleration="2.49"/>
        <vehicle id="4" x="122.10" y="-1.60" angle="90.00" type="Car" speed="23.40" pos="122.10" lane="e0_0" slope="0.00" acceleration="2.60"/>
    </timestep>
    <timestep time="20.00">
        <vehicle id="0" x="476.12" y="-1.60" angle="90.00" type="Car" speed="33.53" pos="476.12" lane="e0_0" slope="0.00" acceleration="0.00"/>
        <vehicle id="1" x="376.55" y="-1.60" angle="90.00" type="Car" speed="31.34" pos="376.55" lane="e0_0" slope="0.00" acceleration="0.08"/>
        <vehicle id="2" x="304.38" y="-1.60" angle="90.00" type="Car" speed="32.89" pos="304.38" lane="e0_0" slope="0.00" acceleration="0.43"/>
        <vehicle id="3" x="223.47" y="-1.60" angle="90.00" type="Car" speed="31.29" pos="223.47" lane="e0_0" slope="0.00" acceleration="1.49"/>
        <vehicle id="4" x="148.10" y="-1.60" angle="90.00" type="Car" speed="26.00" pos="148.10" lane="e0_0" slope="0.00" acceleration="2.60"/>
    </timestep>
    <timestep time="21.00">
        <vehicle id="0" x="509.65" y="-1.60" angle="90.00" type="Car" speed="33.53" pos="509.65" lane="e0_0" slope="0.00" acceleration="0.00"/>
        <vehicle id="1" x="407.94" y="-1.60" angle="90.00" type="Car" speed="31.39" pos="407.94" lane="e0_0" slope="0.00" acceleration="0.05"/>
        <vehicle id="2" x="337.52" y="-1.60" angle="90.00" type="Car" speed="33.14" pos="337.52" lane="e0_0" slope="0.00" acceleration="0.26"/>
        <vehicle id="3" x="255.65" y="-1.60" angle="90.00" type="Car" speed="32.18" pos="255.65" lane="e0_0" slope="0.00" acceleration="0.90"/>
        <vehicle id="4" x="176.70" y="-1.60" angle="90.00" type="Car" speed="28.60" pos="176.70" lane="e0_0" slope="0.00" acceleration="2.60"/>
    </timestep>
    <timestep time="22.00">
        <vehicle id="0" x="543.18" y="-1.60" angle="90.00" type="Car" speed="33.53" pos="543.18" lane="e0_0" slope="0.00" acceleration="0.00"/>
        <vehicle id="1" x="439.36" y="-1.60" angle="90.00" type="Car" speed="31.42" pos="439.36" lane="e0_0" slope="0.00" acceleration="0.03"/>
        <vehicle id="2" x="370.82" y="-1.60" angle="90.00" type="Car" speed="33.30" pos="370.82" lane="e0_0" slope="0.00" acceleration="0.15"/>
        <vehicle id="3" x="288.37" y="-1.60" angle="90.00" type="Car" speed="32.72" pos="288.37" lane="e0_0" slope="0.00" acceleration="0.54"/>
        <vehicle id="4" x="207.27" y="-1.60" angle="90.00" type="Car" speed="30.57" pos="207.27" lane="e0_0" slope="0.00" acceleration="1.97"/>
    </timestep>
    <timestep time="23.00">
        <vehicle id="0" x="576.71" y="-1.60" angle="90.00" type="Car" speed="33.53" pos="576.71" lane="e0_0" slope="0.00" acceleration="0.00"/>
        <vehicle id="1" x="470.80" y="-1.60" angle="90.00" type="Car" speed="31.44" pos="470.80" lane="e0_0" slope="0.00" acceleration="0.02"/>
        <vehicle id="2" x="404.21" y="-1.60" angle="90.00" type="Car" speed="33.39" pos="404.21" lane="e0_0" slope="0.00" acceleration="0.09"/>
        <vehicle id="3" x="321.41" y="-1.60" angle="90.00" type="Car" speed="33.04" pos="321.41" lane="e0_0" slope="0.00" acceleration="0.32"/>
        <vehicle id="4" x="239.03" y="-1.60" angle="90.00" type="Car" speed="31.75" pos="239.03" lane="e0_0" slope="0.00" acceleration="1.18"/>
    </timestep>
    <timestep time="24.00">
        <vehicle id="0" x="610.24" y="-1.60" angle="90.00" type="Car" speed="33.53" pos="610.24" lane="e0_0" slope="0.00" acceleration="0.00"/>
        <vehicle id="1" x="502.24" y="-1.60" angle="90.00" type="Car" speed="31.45" pos="502.24" lane="e0_0" slope="0.00" acceleration="0.01"/>
        <vehicle id="2" x="437.66" y="-1.60" angle="90.00" type="Car" speed="33.45" pos="437.66" lane="e0_0" slope="0.00" acceleration="0.06"/>
        <vehicle id="3" x="354.65" y="-1.60" angle="90.00" type="Car" speed="33.24" pos="354.65" lane="e0_0" slope="0.00" acceleration="0.19"/>
        <vehicle id="4" x="271.49" y="-1.60" angle="90.00" type="Car" speed="32.46" pos="271.49" lane="e0_0" slope="0.00" acceleration="0.71"/>
    </timestep>
    <timestep time="25.00">
        <vehicle id="0" x="643.76" y="-1.60" angle="90.00" type="Car" speed="33.53" pos="643.76" lane="e0_0" slope="0.00" acceleration="0.00"/>
        <vehicle id="1" x="533.70" y="-1.60" angle="90.00" type="Car" speed="31.45" pos="533.70" lane="e0_0" slope="0.00" acceleration="0.01"/>
        <vehicle id="2" x="471.13" y="-1.60" angle="90.00" type="Car" speed="33.48" pos="471.13" lane="e0_0" slope="0.00" acceleration="0.03"/>
        <vehicle id="3" x="388.00" y="-1.60" angle="90.00" type="Car" speed="33.35" pos="388.00" lane="e0_0" slope="0.00" acceleration="0.12"/>
        <vehicle id="4" x="304.38" y="-1.60" angle="90.00" type="Car" speed="32.89" pos="304.38" lane="e0_0" slope="0.00" acceleration="0.43"/>
    </timestep>
    <timestep time="26.00">
        <vehicle id="0" x="677.29" y="-1.60" angle="90.00" type="Car" speed="33.53" pos="677.29" lane="e0_0" slope="0.00" acceleration="0.00"/>
        <vehicle id="1" x="565.15" y="-1.60" angle="90.00" type="Car" speed="31.46" pos="565.15" lane="e0_0" slope="0.00" acceleration="0.00"/>
        <vehicle id="2" x="504.63" y="-1.60" angle="90.00" type="Car" speed="33.50" pos="504.63" lane="e0_0" slope="0.00" acceleration="0.02"/>
        <vehicle id="3" x="421.43" y="-1.60" angle="90.00" type="Car" speed="33.42" pos="421.43" lane="e0_0" slope="0.00" acceleration="0.07"/>
        <vehicle id="4" x="337.52" y="-1.60" angle="90.00" type="Car" speed="33.14" pos="337.52" lane="e0_0" slope="0.00" acceleration="0.26"/>
    </timestep>
    <timestep time="27.00">
        <vehicle id="0" x="710.82" y="-1.60" angle="90.00" type="Car" speed="33.53" pos="710.82" lane="e0_0" slope="0.00" acceleration="0.00"/>
        <vehicle id="1" x="596.61" y="-1.60" angle="90.00" type="Car" speed="31.46" pos="596.61" lane="e0_0" slope="0.00" acceleration="0.00"/>
        <vehicle id="2" x="538.14" y="-1.60" angle="90.00" type="Car" speed="33.51" pos="538.14" lane="e0_0" slope="0.00" acceleration="0.01"/>
        <vehicle id="3" x="454.89" y="-1.60" angle="90.00" type="Car" speed="33.47" pos="454.89" lane="e0_0" slope="0.00" acceleration="0.04"/>
        <vehicle id="4" x="370.82" y="-1.60" angle="90.00" type="Car" speed="33.30" pos="370.82" lane="e0_0" slope="0.00" acceleration="0.15"/>
    </timestep>
    <timestep time="28.00">
        <vehicle id="0" x="744.35" y="-1.60" angle="90.00" type="Car" speed="33.53" pos="744.35" lane="e0_0" slope="0.00" acceleration="0.00"/>
        <vehicle id="1" x="628.07" y="-1.60" angle="90.00" type="Car" speed="31.46" pos="628.07" lane="e0_0" slope="0.00" acceleration="0.00"/>
        <vehicle id="2" x="571.66" y="-1.60" angle="90.00" type="Car" speed="33.52" pos="571.66" lane="e0_0" slope="0.00" acceleration="0.01"/>
        <vehicle id="3" x="488.38" y="-1.60" angle="90.00" type="Car" speed="33.49" pos="488.38" lane="e0_0" slope="0.00" acceleration="0.03"/>
        <vehicle id="4" x="404.21" y="-1.60" angle="90.00" type="Car" speed="33.39" pos="404.21" lane="e0_0" slope="0.00" acceleration="0.09"/>
    </timestep>
    <timestep time="29.00">
        <vehicle id="0" x="777.88" y="-1.60" angle="90.00" type="Car" speed="33.53" pos="777.88" lane="e0_0" slope="0.00" acceleration="0.00"/>
        <vehicle id="1" x="659.53" y="-1.60" angle="90.00" type="Car" speed="31.46" pos="659.53" lane="e0_0" slope="0.00" acceleration="0.00"/>
        <vehicle id="2" x="605.14" y="-1.60" angle="90.00" type="Car" speed="33.48" pos="605.14" lane="e0_0" slope="0.00" acceleration="-0.04"/>
        <vehicle id="3" x="521.89" y="-1.60" angle="90.00" type="Car" speed="33.51" pos="521.89" lane="e0_0" slope="0.00" acceleration="0.02"/>
        <vehicle id="4" x="437.66" y="-1.60" angle="90.00" type="Car" speed="33.45" pos="437.66" lane="e0_0" slope="0.00" acceleration="0.06"/>
    </timestep>
    <timestep time="30.00">
        <vehicle id="0" x="811.40" y="-1.60" angle="90.00" type="Car" speed="33.53" pos="811.40" lane="e0_0" slope="0.00" acceleration="0.00"/>
        <vehicle id="1" x="690.99" y="-1.60" angle="90.00" type="Car" speed="31.46" pos="690.99" lane="e0_0" slope="0.00" acceleration="0.00"/>
        <vehicle id="2" x="638.57" y="-1.60" angle="90.00" type="Car" speed="33.43" pos="638.57" lane="e0_0" slope="0.00" acceleration="-0.05"/>
        <vehicle id="3" x="555.40" y="-1.60" angle="90.00" type="Car" speed="33.51" pos="555.40" lane="e0_0" slope="0.00" acceleration="0.01"/>
        <vehicle id="4" x="471.13" y="-1.60" angle="90.00" type="Car" speed="33.48" pos="471.13" lane="e0_0" slope="0.00" acceleration="0.03"/>
    </timestep>
    <timestep time="31.00">
        <vehicle id="0" x="844.93" y="-1.60" angle="90.00" type="Car" speed="33.53" pos="844.93" lane="e0_0" slope="0.00" acceleration="0.00"/>
        <vehicle id="1" x="722.45" y="-1.60" angle="90.00" type="Car" speed="31.46" pos="722.45" lane="e0_0" slope="0.00" acceleration="0.00"/>
        <vehicle id="2" x="671.95" y="-1.60" angle="90.00" type="Car" speed="33.37" pos="671.95" lane="e0_0" slope="0.00" acceleration="-0.06"/>
        <vehicle id="3" x="588.92" y="-1.60" angle="90.00" type="Car" speed="33.52" pos="588.92" lane="e0_0" slope="0.00" acceleration="0.01"/>
        <vehicle id="4" x="504.63" y="-1.60" angle="90.00" type="Car" speed="33.50" pos="504.63" lane="e0_0" slope="0.00" acceleration="0.02"/>
    </timestep>
    <timestep time="32.00">
        <vehicle id="0" x="878.46" y="-1.60" angle="90.00" type="Car" speed="33.53" pos="878.46" lane="e0_0" slope="0.00" acceleration="0.00"/>
        <vehicle id="1" x="753.91" y="-1.60" angle="90.00" type="Car" speed="31.46" pos="753.91" lane="e0_0" slope="0.00" acceleration="0.00"/>
        <vehicle id="2" x="705.26" y="-1.60" angle="90.00" type="Car" speed="33.31" pos="705.26" lane="e0_0" slope="0.00" acceleration="-0.06"/>
        <vehicle id="3" x="622.44" y="-1.60" angle="90.00" type="Car" speed="33.52" pos="622.44" lane="e0_0" slope="0.00" acceleration="0.00"/>
        <vehicle id="4" x="538.14" y="-1.60" angle="90.00" type="Car" speed="33.51" pos="538.14" lane="e0_0" slope="0.00" acceleration="0.01"/>
    </timestep>
    <timestep time="33.00">
        <vehicle id="0" x="911.99" y="-1.60" angle="90.00" type="Car" speed="33.53" pos="911.99" lane="e0_0" slope="0.00" acceleration="0.00"/>
        <vehicle id="1" x="785.37" y="-1.60" angle="90.00" type="Car" speed="31.46" pos="785.37" lane="e0_0" slope="0.00" acceleration="0.00"/>
        <vehicle id="2" x="738.50" y="-1.60" angle="90.00" type="Car" speed="33.24" pos="738.50" lane="e0_0" slope="0.00" acceleration="-0.07"/>
        <vehicle id="3" x="655.97" y="-1.60" angle="90.00" type="Car" speed="33.53" pos="655.97" lane="e0_0" slope="0.00" acceleration="0.00"/>
        <vehicle id="4" x="571.66" y="-1.60" angle="90.00" type="Car" speed="33.52" pos="571.66" lane="e0_0" slope="0.00" acceleration="0.01"/>
    </timestep>
    <timestep time="34.00">
        <vehicle id="0" x="945.52" y="-1.60" angle="90.00" type="Car" speed="33.53" pos="945.52" lane="e0_0" slope="0.00" acceleration="0.00"/>
        <vehicle id="1" x="816.83" y="-1.60" angle="90.00" type="Car" speed="31.46" pos="816.83" lane="e0_0" slope="0.00" acceleration="0.00"/>
        <vehicle id="2" x="771.67" y="-1.60" angle="90.00" type="Car" speed="33.17" pos="771.67" lane="e0_0" slope="0.00" acceleration="-0.07"/>
        <vehicle id="3" x="689.50" y="-1.60" angle="90.00" type="Car" speed="33.53" pos="689.50" lane="e0_0" slope="0.00" acceleration="0.00"/>
        <vehicle id="4" x="605.18" y="-1.60" angle="90.00" type="Car" speed="33.52" pos="605.18" lane="e0_0" slope="0.00" acceleration="0.00"/>
    </timestep>
    <timestep time="35.00">
        <vehicle id="0" x="979.04" y="-1.60" angle="90.00" type="Car" speed="33.53" pos="979.04" lane="e0_0" slope="0.00" acceleration="0.00"/>
        <vehicle id="1" x="848.30" y="-1.60" angle="90.00" type="Car" speed="31.46" pos="848.30" lane="e0_0" slope="0.00" acceleration="0.00"/>
        <vehicle id="2" x="804.76" y="-1.60" angle="90.00" type="Car" speed="33.09" pos="804.76" lane="e0_0" slope="0.00" acceleration="-0.08"/>
        <vehicle id="3" x="723.02" y="-1.60" angle="90.00" type="Car" speed="33.53" pos="723.02" lane="e0_0" slope="0.00" acceleration="0.00"/>
        <vehicle id="4" x="638.71" y="-1.60" angle="90.00" type="Car" speed="33.52" pos="638.71" lane="e0_0" slope="0.00" acceleration="0.00"/>
    </timestep>
    <timestep time="36.00">
        <vehicle id="0" x="1012.57" y="-1.60" angle="90.00" type="Car" speed="33.53" pos="1012.57" lane="e0_0" slope="0.00" acceleration="0.00"/>
        <vehicle id="1" x="879.76" y="-1.60" angle="90.00" type="Car" speed="31.46" pos="879.76" lane="e0_0" slope="0.00" acceleration="0.00"/>
        <vehicle id="2" x="837.77" y="-1.60" angle="90.00" type="Car" speed="33.01" pos="837.77" lane="e0_0" slope="0.00" acceleration="-0.08"/>
        <vehicle id="3" x="756.55" y="-1.60" angle="90.00" type="Car" speed="33.53" pos="756.55" lane="e0_0" slope="0.00" acceleration="0.00"/>
        <vehicle id="4" x="672.23" y="-1.60" angle="90.00" type="Car" speed="33.53" pos="672.23" lane="e0_0" slope="0.00" acceleration="0.00"/>
    </timestep>
    <timestep time="37.00">
        <vehicle id="0" x="1046.10" y="-1.60" angle="90.00" type="Car" speed="33.53" pos="1046.10" lane="e0_0" slope="0.00" acceleration="0.00"/>
        <vehicle id="1" x="911.22" y="-1.60" angle="90.00" type="Car" speed="31.46" pos="911.22" lane="e0_0" slope="0.00" acceleration="0.00"/>
        <vehicle id="2" x="870.23" y="-1.60" angle="90.00" type="Car" speed="32.47" pos="870.23" lane="e0_0" slope="0.00" acceleration="-0.54"/>
        <vehicle id="3" x="790.08" y="-1.60" angle="90.00" type="Car" speed="33.53" pos="790.08" lane="e0_0" slope="0.00" acceleration="0.00"/>
        <vehicle id="4" x="705.76" y="-1.60" angle="90.00" type="Car" speed="33.53" pos="705.76" lane="e0_0" slope="0.00" acceleration="0.00"/>
    </timestep>
    <timestep time="38.00">
        <vehicle id="0" x="1079.63" y="-1.60" angle="90.00" type="Car" speed="33.53" pos="1079.63" lane="e0_0" slope="0.00" acceleration="0.00"/>
        <vehicle id="1" x="942.68" y="-1.60" angle="90.00" type="Car" speed="31.46" pos="942.68" lane="e0_0" slope="0.00" acceleration="0.00"/>
        <vehicle id="2" x="901.96" y="-1.60" angle="90.00" type="Car" speed="31.72" pos="901.96" lane="e0_0" slope="0.00" acceleration="-0.74"/>
        <vehicle id="3" x="823.61" y="-1.60" angle="90.00" type="Car" speed="33.53" pos="823.61" lane="e0_0" slope="0.00" acceleration="0.00"/>
        <vehicle id="4" x="739.29" y="-1.60" angle="90.00" type="Car" speed="33.53" pos="739.29" lane="e0_0" slope="0.00" acceleration="0.00"/>
    </timestep>
    <timestep time="39.00">
        <vehicle id="0" x="1113.16" y="-1.60" angle="90.00" type="Car" speed="33.53" pos="1113.16" lane="e0_0" slope="0.00" acceleration="0.00"/>
        <vehicle id="1" x="974.14" y="-1.60" angle="90.00" type="Car" speed="31.46" pos="974.14" lane="e0_0" slope="0.00" acceleration="0.00"/>
        <vehicle id="2" x="933.18" y="-1.60" angle="90.00" type="Car" speed="31.22" pos="933.18" lane="e0_0" slope="0.00" acceleration="-0.50"/>
        <vehicle id="3" x="857.13" y="-1.60" angle="90.00" type="Car" speed="33.53" pos="857.13" lane="e0_0" slope="0.00" acceleration="0.00"/>
        <vehicle id="4" x="772.81" y="-1.60" angle="90.00" type="Car" speed="33.53" pos="772.81" lane="e0_0" slope="0.00" acceleration="0.00"/>
    </timestep>
    <timestep time="40.00">
        <vehicle id="0" x="1146.68" y="-1.60" angle="90.00" type="Car" speed="33.53" pos="1146.68" lane="e0_0" slope="0.00" acceleration="0.00"/>
        <vehicle id="1" x="1005.60" y="-1.60" angle="90.00" type="Car" speed="31.46" pos="1005.60" lane="e0_0" slope="0.00" acceleration="0.00"/>
        <vehicle id="2" x="964.27" y="-1.60" angle="90.00" type="Car" speed="31.09" pos="964.27" lane="e0_0" slope="0.00" acceleration="-0.13"/>
        <vehicle id="3" x="890.66" y="-1.60" angle="90.00" type="Car" speed="33.53" pos="890.66" lane="e0_0" slope="0.00" acceleration="0.00"/>
        <vehicle id="4" x="806.34" y="-1.60" angle="90.00" type="Car" speed="33.53" pos="806.34" lane="e0_0" slope="0.00" acceleration="0.00"/>
    </timestep>
    <timestep time="41.00">
        <vehicle id="0" x="1180.21" y="-1.60" angle="90.00" type="Car" speed="33.53" pos="1180.21" lane="e0_0" slope="0.00" acceleration="0.00"/>
        <vehicle id="1" x="1037.06" y="-1.60" angle="90.00" type="Car" speed="31.46" pos="1037.06" lane="e0_0" slope="0.00" acceleration="0.00"/>
        <vehicle id="2" x="995.38" y="-1.60" angle="90.00" type="Car" speed="31.11" pos="995.38" lane="e0_0" slope="0.00" acceleration="0.01"/>
        <vehicle id="3" x="924.19" y="-1.60" angle="90.00" type="Car" speed="33.53" pos="924.19" lane="e0_0" slope="0.00" acceleration="0.00"/>
        <vehicle id="4" x="839.87" y="-1.60" angle="90.00" type="Car" speed="33.53" pos="839.87" lane="e0_0" slope="0.00" acceleration="0.00"/>
    </timestep>
    <timestep time="42.00">
        <vehicle id="0" x="1213.74" y="-1.60" angle="90.00" type="Car" speed="33.53" pos="1213.74" lane="e0_0" slope="0.00" acceleration="0.00"/>